/*--------------------------------*- C++ -*----------------------------------*\
| =========                 |                                                 |
| \\      /  F ield         | OpenFOAM: The Open Source CFD Toolbox           |
|  \\    /   O peration     | Version:  2212                                  |
|   \\  /    A nd           | Website:  www.openfoam.com                      |
|    \\/     M anipulation  |                                                 |
\*---------------------------------------------------------------------------*/
FoamFile
{
    version     2.0;
    format      ascii;
    arch        "LSB;label=32;scalar=64";
    class       volScalarField;
    location    "0.2";
    object      p;
}
// * * * * * * * * * * * * * * * * * * * * * * * * * * * * * * * * * * * * * //

dimensions      [0 2 -2 0 0 0 0];

internalField   nonuniform List<scalar> 
42875
(
-7.11584484e-15
-8.307723755e-15
-7.143851774e-15
-6.962077763e-15
-7.649683593e-15
-7.502950595e-15
-7.348598312e-15
-7.122351007e-15
-6.83252593e-15
-6.549527037e-15
-6.800269996e-15
-6.743977588e-15
-7.128508783e-15
-6.766228919e-15
-6.775811377e-15
-7.558988893e-15
-6.808940288e-15
-6.694716455e-15
-6.585144905e-15
-6.164734802e-15
-6.179813464e-15
-6.58175963e-15
-7.20665754e-15
-6.602151965e-15
-6.750188216e-15
-6.98093273e-15
-6.289986717e-15
-6.814026476e-15
-6.65359914e-15
-6.883652245e-15
-6.659960102e-15
-7.165834231e-15
-6.618647232e-15
-6.271336573e-15
-6.028244318e-15
-6.824699671e-15
-6.179051595e-15
-5.736228188e-15
-6.636621497e-15
-6.722384065e-15
-6.812741374e-15
-6.604848356e-15
-6.662962521e-15
-6.932070288e-15
-6.92100644e-15
-6.434441674e-15
-6.673032972e-15
-6.840506318e-15
-6.525395173e-15
-6.68641393e-15
-6.529369921e-15
-6.868261334e-15
-6.623972482e-15
-6.34829374e-15
-6.813985612e-15
-6.599141925e-15
-6.637422576e-15
-7.079628965e-15
-6.156376035e-15
-6.72119311e-15
-6.437185782e-15
-6.089754257e-15
-6.489065253e-15
-6.708618405e-15
-6.784353612e-15
-6.420524704e-15
-6.805313657e-15
-6.478283983e-15
-6.705396379e-15
-6.895670759e-15
-6.869102775e-15
-6.23641464e-15
-6.441214478e-15
-6.934113853e-15
-6.63929895e-15
-6.191500631e-15
-6.975737939e-15
-7.000402071e-15
-7.299057032e-15
-6.77696336e-15
-6.704734951e-15
-6.587934685e-15
-6.832169765e-15
-6.560011262e-15
-5.708432951e-15
-6.484909442e-15
-6.145148509e-15
-6.951105323e-15
-6.632256084e-15
-5.939685425e-15
-6.629926306e-15
-6.557782877e-15
-6.391716126e-15
-6.035904422e-15
-6.744659059e-15
-6.726600165e-15
-6.482009614e-15
-6.449726304e-15
-6.761961454e-15
-6.479084473e-15
-6.32615639e-15
-6.540433303e-15
-6.829572917e-15
-6.392412767e-15
-6.969608545e-15
-5.296771346e-15
-6.150803798e-15
-7.004621316e-15
-7.004516575e-15
-6.879481256e-15
-6.864023398e-15
-7.017426723e-15
-6.161686759e-15
-6.791380641e-15
-6.916840161e-15
-7.551776978e-15
-7.075573964e-15
-6.902820797e-15
-6.981418577e-15
-6.717434001e-15
-5.539408942e-15
-6.007700121e-15
-5.816420255e-15
-6.536992577e-15
-6.079706862e-15
-6.173336649e-15
-6.905784858e-15
-6.694594708e-15
-6.099015603e-15
-5.603767755e-15
-6.889956236e-15
-6.255021368e-15
-6.510484517e-15
-6.374225521e-15
-6.57365673e-15
-6.621625816e-15
-6.649644969e-15
-6.581349865e-15
-6.902433596e-15
-6.410341764e-15
-7.025050364e-15
-6.060825379e-15
-6.146755014e-15
-6.514861389e-15
-7.163372687e-15
-6.620628524e-15
-6.362321211e-15
-6.967133457e-15
-6.139297975e-15
-5.961000404e-15
-6.789981755e-15
-6.202591197e-15
-6.562754963e-15
-6.712510967e-15
-6.592059188e-15
-6.540173946e-15
-6.050564608e-15
-6.533034559e-15
-7.165109448e-15
-7.634709381e-15
-7.199735227e-15
-7.242831719e-15
-7.139175815e-15
-6.704596004e-15
-5.989907854e-15
-4.893976367e-15
-5.353165814e-15
-5.484958002e-15
-6.153571211e-15
-5.883041623e-15
-5.317380552e-15
-6.480944432e-15
-6.106612041e-15
-6.080814833e-15
-5.635844693e-15
-6.82170854e-15
-6.436142167e-15
-6.493742729e-15
-6.295659448e-15
-6.273853468e-15
-6.937117065e-15
-6.582256636e-15
-6.410838733e-15
-6.33003882e-15
-6.763930817e-15
-7.018009155e-15
-6.830442803e-15
-6.42482272e-15
-6.388113781e-15
-6.617053349e-15
-6.682303214e-15
-6.691727854e-15
-6.964609683e-15
-6.40960902e-15
-6.487944485e-15
-6.526888613e-15
-6.571555309e-15
-6.600074194e-15
-6.71253113e-15
-6.694034701e-15
-6.797873256e-15
-6.25195883e-15
-6.342760371e-15
-6.316613023e-15
-6.599071041e-15
-6.60989325e-15
-6.549429143e-15
-6.395133447e-15
-6.327438859e-15
-6.301520653e-15
-6.085989332e-15
-6.779520249e-15
-6.591342361e-15
-7.049132928e-15
-6.815721749e-15
-6.866040827e-15
-6.659632451e-15
-6.596351133e-15
-6.901331565e-15
-6.191926037e-15
-3.780227436e-15
-4.898329277e-15
-5.170000625e-15
-5.941535014e-15
-5.338164126e-15
-5.489212895e-15
-5.978174886e-15
-5.453569009e-15
-5.886997768e-15
-5.623499707e-15
-6.191115119e-15
-6.383384108e-15
-6.336108636e-15
-5.891903525e-15
-5.44468318e-15
-6.920372408e-15
-6.347506479e-15
-6.39276529e-15
-6.402648501e-15
-6.73432852e-15
-5.581072193e-15
-6.448883374e-15
-6.719837655e-15
-6.493634827e-15
-5.925452372e-15
-6.454462029e-15
-6.77075526e-15
-6.704207581e-15
-6.943979117e-15
-6.899623581e-15
-6.663454795e-15
-6.715344741e-15
-6.750622502e-15
-7.100685385e-15
-6.510985241e-15
-6.896409428e-15
-6.647517856e-15
-6.477573577e-15
-6.428042049e-15
-6.559110452e-15
-6.642835334e-15
-6.625116581e-15
-7.02578704e-15
-6.720000993e-15
-7.138587843e-15
-5.878352643e-15
-6.002412899e-15
-6.309962373e-15
-6.610723591e-15
-6.571770604e-15
-6.635583832e-15
-6.713403709e-15
-7.199063919e-15
-6.035797032e-15
-6.187239271e-15
-5.535026282e-15
-6.882710876e-15
-6.270405531e-15
-6.678967359e-15
-7.157348311e-15
-6.596982852e-15
-6.6556972e-15
-6.628181714e-15
-6.390373292e-15
-7.228240715e-15
-6.440596619e-15
-4.02817276e-15
-4.365769002e-15
-4.848552797e-15
-5.464285073e-15
-4.975443486e-15
-5.361271192e-15
-6.172011944e-15
-5.647014188e-15
-5.88704041e-15
-5.700512956e-15
-5.850792419e-15
-5.689852971e-15
-5.470354861e-15
-5.881434868e-15
-5.206696387e-15
-5.886146111e-15
-6.333718377e-15
-6.497586034e-15
-6.059996842e-15
-5.696571527e-15
-5.896076808e-15
-6.18342921e-15
-6.568518353e-15
-6.167433597e-15
-6.227469227e-15
-6.452143931e-15
-6.410601695e-15
-6.0017952e-15
-7.085980763e-15
-6.315147278e-15
-6.636159518e-15
-6.236818457e-15
-6.526484503e-15
-6.634602756e-15
-6.618084474e-15
-6.557258216e-15
-6.768606408e-15
-6.577915514e-15
-6.520863241e-15
-6.82945692e-15
-6.781148745e-15
-6.834116653e-15
-6.606498454e-15
-6.593131907e-15
-6.818982142e-15
-6.527325222e-15
-6.626619255e-15
-6.46966358e-15
-6.569444472e-15
-6.910621546e-15
-6.994360941e-15
-6.660814087e-15
-6.978505424e-15
-6.710825379e-15
-6.675043576e-15
-6.143573507e-15
-6.236230641e-15
-6.232534543e-15
-6.771057319e-15
-6.097518017e-15
-6.600531663e-15
-6.621571809e-15
-6.726006202e-15
-6.827094137e-15
-6.062446897e-15
-5.926340813e-15
-5.158016699e-15
-6.905522804e-15
-6.247645568e-15
-6.582364692e-15
-6.400690098e-15
-7.264014517e-15
-6.519869706e-15
-6.611464102e-15
-6.547189155e-15
-7.241261979e-15
-6.506373113e-15
-6.063830321e-15
-4.820492665e-15
-4.367727091e-15
-4.615127521e-15
-4.068753217e-15
-4.67216205e-15
-4.921636099e-15
-6.017114011e-15
-5.416335123e-15
-5.387161293e-15
-5.304783652e-15
-5.885040055e-15
-6.241136832e-15
-5.807464521e-15
-5.687252015e-15
-6.174341143e-15
-5.816634889e-15
-5.512661352e-15
-5.927923658e-15
-5.624529563e-15
-5.57792125e-15
-5.618769314e-15
-6.270675036e-15
-6.06960197e-15
-6.13366803e-15
-6.088061139e-15
-6.13380753e-15
-6.256389391e-15
-5.955534663e-15
-6.227664459e-15
-6.157619791e-15
-6.158017553e-15
-6.283090372e-15
-6.283576157e-15
-6.408235354e-15
-6.398525357e-15
-6.110477855e-15
-5.931235301e-15
-6.580579494e-15
-6.547452856e-15
-6.13816472e-15
-6.307554239e-15
-6.685024803e-15
-6.463828184e-15
-6.583173586e-15
-6.527062947e-15
-6.357855896e-15
-6.47727762e-15
-6.391524682e-15
-6.803378541e-15
-7.109638242e-15
-6.944928148e-15
-6.420196034e-15
-6.616088308e-15
-6.72358462e-15
-6.605853753e-15
-6.756037257e-15
-6.406216157e-15
-6.156118082e-15
-6.438672421e-15
-6.546852578e-15
-6.995969221e-15
-6.810038262e-15
-7.005461916e-15
-6.816043701e-15
-6.466702404e-15
-6.586976355e-15
-5.872120919e-15
-6.369503977e-15
-6.362714046e-15
-6.298019588e-15
-6.67541787e-15
-6.095893915e-15
-6.232326155e-15
-6.966777359e-15
-6.863008465e-15
-6.489048121e-15
-6.06283023e-15
-5.755341634e-15
-6.095307757e-15
-6.357361764e-15
-6.144331783e-15
-6.659029811e-15
-5.924902607e-15
-6.647341382e-15
-6.5818623e-15
-6.533262571e-15
-6.272435367e-15
-6.581088792e-15
-6.275785738e-15
-6.525799839e-15
-5.535661841e-15
-5.207414122e-15
-4.718886969e-15
-4.884335943e-15
-4.320023965e-15
-4.923664905e-15
-4.673704079e-15
-4.428299834e-15
-4.586009728e-15
-5.096468952e-15
-5.110511444e-15
-5.654392587e-15
-5.489474343e-15
-5.592584396e-15
-5.171095042e-15
-5.546342752e-15
-5.935546032e-15
-5.951982514e-15
-5.820580367e-15
-5.797908226e-15
-5.950392456e-15
-5.592254486e-15
-6.443306151e-15
-5.947175086e-15
-5.843975589e-15
-5.926957845e-15
-5.675518604e-15
-6.147693865e-15
-5.688547994e-15
-5.770354565e-15
-6.05375992e-15
-5.924619617e-15
-6.034237719e-15
-5.999659594e-15
-5.732222908e-15
-5.959722634e-15
-5.766504451e-15
-5.647010941e-15
-6.159735437e-15
-5.921974788e-15
-6.210567984e-15
-6.08213435e-15
-6.468308645e-15
-6.373185213e-15
-6.392719431e-15
-5.861537992e-15
-5.849217481e-15
-5.990754211e-15
-6.280627446e-15
-6.124358182e-15
-6.365444213e-15
-6.391934058e-15
-6.647979659e-15
-6.215332448e-15
-6.675419387e-15
-6.433032822e-15
-6.591224851e-15
-6.032053708e-15
-6.29244617e-15
-6.226432023e-15
-6.688233365e-15
-6.705960948e-15
-6.779095607e-15
-6.822382297e-15
-6.890313806e-15
-6.644276073e-15
-6.606642997e-15
-6.914247241e-15
-6.210472873e-15
-6.200590023e-15
-6.302876528e-15
-6.262488029e-15
-6.603567265e-15
-6.781042832e-15
-6.907732921e-15
-6.962974363e-15
-6.533490335e-15
-6.66596302e-15
-6.178811981e-15
-5.614760657e-15
-5.63149191e-15
-6.371826754e-15
-6.59486785e-15
-6.812876055e-15
-6.389746281e-15
-6.550264306e-15
-6.306036802e-15
-7.064524346e-15
-6.543739861e-15
-6.455556385e-15
-5.937574221e-15
-6.053271049e-15
-6.321036042e-15
-6.21354994e-15
-5.720879252e-15
-6.556443382e-15
-6.232730784e-15
-6.837258788e-15
-6.345698552e-15
-6.229550753e-15
-5.918736536e-15
-6.299382738e-15
-6.273973793e-15
-5.982551414e-15
-5.978967797e-15
-6.197347802e-15
-4.635917487e-15
-4.645798799e-15
-4.916537918e-15
-5.01698607e-15
-4.999126229e-15
-4.845955585e-15
-4.889196176e-15
-4.959284899e-15
-5.074628777e-15
-5.123011544e-15
-4.381047004e-15
-4.704445904e-15
-5.062006657e-15
-5.091170267e-15
-4.64327792e-15
-5.6016882e-15
-5.981871894e-15
-5.588651843e-15
-5.322562845e-15
-5.349953544e-15
-5.104456514e-15
-6.157466526e-15
-6.045332827e-15
-6.271685278e-15
-5.813342803e-15
-5.820633591e-15
-5.503265452e-15
-5.720468072e-15
-5.887812266e-15
-6.042232722e-15
-6.080574568e-15
-5.710160331e-15
-6.206106951e-15
-5.720700961e-15
-5.604340566e-15
-5.994306364e-15
-6.043727395e-15
-5.640313623e-15
-6.054384015e-15
-6.387883086e-15
-6.125120579e-15
-5.732615301e-15
-5.919595493e-15
-5.946039836e-15
-5.809673853e-15
-6.136906767e-15
-6.138752015e-15
-6.321392712e-15
-6.13615764e-15
-6.126572532e-15
-6.195328566e-15
-6.282796999e-15
-6.056466041e-15
-6.268707714e-15
-6.273303327e-15
-6.286034191e-15
-6.070469803e-15
-6.035499069e-15
-6.524504942e-15
-6.130615924e-15
-6.172298625e-15
-6.405372133e-15
-6.553947528e-15
-6.373969513e-15
-6.626542417e-15
-6.508005727e-15
-6.547470141e-15
-6.167801115e-15
-6.370176819e-15
-6.233374288e-15
-6.333959811e-15
-6.625683403e-15
-6.972468875e-15
-6.681491917e-15
-6.644705361e-15
-6.511254065e-15
-6.694732489e-15
-6.591004129e-15
-6.551489358e-15
-6.530617639e-15
-6.465176786e-15
-6.316236646e-15
-6.265123189e-15
-6.375963816e-15
-6.866979633e-15
-6.643883078e-15
-6.694732818e-15
-6.740577381e-15
-6.47039901e-15
-6.269624657e-15
-6.419217751e-15
-5.832987298e-15
-5.949062102e-15
-6.063753333e-15
-6.288244444e-15
-6.596792079e-15
-6.472403984e-15
-6.677378137e-15
-6.308324234e-15
-6.532088833e-15
-6.655005035e-15
-6.509639895e-15
-6.067161587e-15
-6.229134399e-15
-6.098829883e-15
-6.937703135e-15
-6.419743986e-15
-6.247314933e-15
-5.953253802e-15
-6.65681642e-15
-6.406398521e-15
-6.573692484e-15
-6.328590092e-15
-6.476774972e-15
-5.940001352e-15
-6.04741707e-15
-5.955298818e-15
-6.169758907e-15
-6.516272792e-15
-6.639750373e-15
-4.24455786e-15
-4.41795348e-15
-4.459659985e-15
-4.348432407e-15
-4.743008383e-15
-5.226646377e-15
-4.647419989e-15
-5.468688251e-15
-4.991058594e-15
-4.779229237e-15
-4.813242505e-15
-5.030201613e-15
-5.132616454e-15
-5.283835016e-15
-5.13183268e-15
-5.185669909e-15
-4.990297105e-15
-5.0383879e-15
-5.404115956e-15
-5.265422701e-15
-4.837202223e-15
-5.782474274e-15
-6.038618788e-15
-5.890014092e-15
-5.910977528e-15
-5.721294106e-15
-4.786264593e-15
-5.220045406e-15
-6.371016499e-15
-5.967702779e-15
-6.278879417e-15
-5.67375725e-15
-6.214226816e-15
-5.644722207e-15
-5.532622033e-15
-5.536644023e-15
-6.001078582e-15
-6.253040413e-15
-5.879254371e-15
-5.922350537e-15
-6.33629454e-15
-6.148512622e-15
-5.884607545e-15
-5.560533181e-15
-5.809505449e-15
-5.986533608e-15
-6.203216686e-15
-6.505314135e-15
-6.335862597e-15
-6.194944412e-15
-5.973650774e-15
-5.905180309e-15
-6.234799391e-15
-5.996623095e-15
-5.908552872e-15
-6.280923075e-15
-6.195434567e-15
-6.405253949e-15
-6.314635594e-15
-6.154498233e-15
-6.36710207e-15
-6.081001871e-15
-6.30450257e-15
-6.363495969e-15
-6.470048694e-15
-6.317806471e-15
-6.354873686e-15
-6.42779136e-15
-6.209242786e-15
-6.274157174e-15
-6.667910947e-15
-6.588341108e-15
-6.783391048e-15
-6.527841492e-15
-6.66218617e-15
-6.289292445e-15
-6.603124219e-15
-6.431246213e-15
-6.818370967e-15
-6.482851283e-15
-6.153115991e-15
-6.391753174e-15
-6.036585481e-15
-6.576404583e-15
-7.10295817e-15
-6.86966188e-15
-6.796505179e-15
-6.905174605e-15
-6.666298143e-15
-6.546954565e-15
-6.461863365e-15
-6.349791004e-15
-6.636921511e-15
-6.493045373e-15
-6.47938873e-15
-6.138197329e-15
-6.4045445e-15
-6.698236204e-15
-6.832654133e-15
-6.803682056e-15
-6.597943963e-15
-6.491996171e-15
-6.62950069e-15
-6.112164441e-15
-6.400893779e-15
-5.845412996e-15
-6.268973276e-15
-6.253220135e-15
-6.21989596e-15
-6.767614751e-15
-6.789666755e-15
-6.579772091e-15
-6.702451103e-15
-6.234714354e-15
-6.691123219e-15
-6.576686535e-15
-6.277049221e-15
-5.939669405e-15
-6.036950873e-15
-6.200073284e-15
-5.925881681e-15
-6.433625235e-15
-6.862213567e-15
-6.186699511e-15
-6.162903462e-15
-6.482816968e-15
-6.769751832e-15
-6.335964939e-15
-6.028268144e-15
-6.891990723e-15
-6.059279582e-15
-6.107598886e-15
-6.215722554e-15
-5.651239408e-15
-6.556475163e-15
-7.606085861e-15
-5.550817427e-15
-4.284228249e-15
-4.152697259e-15
-4.301654577e-15
-4.576533204e-15
-4.95374274e-15
-4.682034947e-15
-4.908708378e-15
-4.879830885e-15
-5.213000581e-15
-4.967308883e-15
-4.937390549e-15
-5.436270385e-15
-5.010177825e-15
-5.398068176e-15
-4.97825585e-15
-4.729036865e-15
-5.085900656e-15
-5.626432942e-15
-5.537839477e-15
-5.200872374e-15
-5.206934159e-15
-5.151014134e-15
-4.762543558e-15
-5.223799205e-15
-5.397275475e-15
-5.060355186e-15
-5.167556586e-15
-6.025992725e-15
-5.70031743e-15
-5.894787321e-15
-5.81237039e-15
-5.498502924e-15
-5.533201907e-15
-5.34420938e-15
-4.579411018e-15
-6.259917192e-15
-5.953123154e-15
-6.013629086e-15
-5.769316759e-15
-5.823474885e-15
-5.844287724e-15
-5.683360091e-15
-5.573264136e-15
-5.544717675e-15
-5.871000854e-15
-6.006669315e-15
-5.827276313e-15
-6.352175486e-15
-5.938975567e-15
-6.17336705e-15
-6.018948792e-15
-6.257808609e-15
-5.673874201e-15
-6.011808044e-15
-6.055269034e-15
-5.733248722e-15
-6.066648603e-15
-6.591954048e-15
-6.463104874e-15
-6.543889088e-15
-6.083929539e-15
-6.211662904e-15
-6.274076746e-15
-5.990961822e-15
-5.614107324e-15
-6.116554147e-15
-6.535566003e-15
-6.3842592e-15
-6.20796288e-15
-6.415908733e-15
-6.017217654e-15
-6.391573475e-15
-6.357039824e-15
-6.301386167e-15
-6.457556336e-15
-6.413438203e-15
-6.676715635e-15
-6.825628525e-15
-6.669995485e-15
-6.452803887e-15
-6.246873227e-15
-6.485664907e-15
-6.704185188e-15
-6.399659185e-15
-6.917010826e-15
-6.605272714e-15
-6.679008935e-15
-6.4032927e-15
-6.424908955e-15
-6.471166354e-15
-6.851717373e-15
-6.967986732e-15
-6.525319e-15
-6.511443451e-15
-6.362933567e-15
-6.162920409e-15
-6.696454296e-15
-6.983941753e-15
-6.986486733e-15
-6.581619025e-15
-6.626577941e-15
-6.818781143e-15
-6.479961515e-15
-6.813286188e-15
-6.118823253e-15
-6.42794944e-15
-6.390612315e-15
-6.693331203e-15
-6.172786898e-15
-6.651360046e-15
-6.935635542e-15
-6.459310937e-15
-6.51620959e-15
-6.891287535e-15
-6.483831572e-15
-6.593437626e-15
-6.263417842e-15
-6.342963952e-15
-6.504925057e-15
-6.357736738e-15
-6.099628058e-15
-6.004875687e-15
-6.156159442e-15
-6.41489602e-15
-6.542144669e-15
-6.530822551e-15
-6.741526301e-15
-6.518638204e-15
-6.418818244e-15
-6.394647154e-15
-6.228103905e-15
-6.076337156e-15
-6.255929977e-15
-6.598205756e-15
-6.124845308e-15
-5.386369261e-15
-6.096492866e-15
-6.614115258e-15
-6.864805752e-15
-6.79332476e-15
-6.076818113e-15
-6.731747566e-15
-6.525474502e-15
-6.590711826e-15
-6.387840138e-15
-5.993985661e-15
-5.919436519e-15
-6.387413428e-15
-5.408913459e-15
-6.066228664e-15
-6.961584755e-15
-7.473993941e-15
-5.118012294e-15
-5.152046578e-15
-5.10042448e-15
-4.394544912e-15
-4.286515191e-15
-4.51776152e-15
-4.661279865e-15
-4.397133409e-15
-4.865728612e-15
-5.393051248e-15
-5.010322281e-15
-4.847293143e-15
-4.84520323e-15
-5.190988585e-15
-5.25028599e-15
-4.908621829e-15
-4.629234039e-15
-5.096262155e-15
-5.410844152e-15
-5.506477945e-15
-5.643183603e-15
-5.38760931e-15
-4.560309176e-15
-5.028315145e-15
-5.254382244e-15
-5.482978045e-15
-5.375203972e-15
-5.387903157e-15
-5.372784998e-15
-5.046098713e-15
-4.999856946e-15
-5.23936182e-15
-5.127072069e-15
-5.273292721e-15
-5.415648198e-15
-4.933050326e-15
-6.351132908e-15
-5.837698653e-15
-5.635800778e-15
-5.481410234e-15
-5.191732007e-15
-5.693029731e-15
-5.598312508e-15
-5.248000392e-15
-5.227535291e-15
-6.434791029e-15
-6.012351708e-15
-5.818870209e-15
-5.897078076e-15
-5.815744047e-15
-5.883287982e-15
-5.948488785e-15
-5.857566283e-15
-5.683867805e-15
-5.796286536e-15
-6.151628059e-15
-6.029057332e-15
-5.916360217e-15
-5.991979981e-15
-6.135719772e-15
-6.210386175e-15
-6.251983933e-15
-6.083069242e-15
-5.917480556e-15
-5.954643947e-15
-6.265008834e-15
-6.342234071e-15
-5.668617336e-15
-6.159386703e-15
-6.357656705e-15
-6.601163732e-15
-6.401881459e-15
-6.285019558e-15
-6.226049888e-15
-6.160938067e-15
-6.152074095e-15
-6.162586397e-15
-6.161363191e-15
-6.343330057e-15
-6.40337036e-15
-6.45289886e-15
-6.045340678e-15
-6.391432547e-15
-6.422545415e-15
-6.472494958e-15
-6.983011952e-15
-6.416254866e-15
-6.370433925e-15
-6.724204673e-15
-6.43607102e-15
-6.363303885e-15
-6.867408929e-15
-6.660088201e-15
-6.435577789e-15
-6.3453939e-15
-6.68452094e-15
-6.533927302e-15
-6.499479864e-15
-6.556309912e-15
-6.389093233e-15
-6.51648801e-15
-6.486181195e-15
-6.199044546e-15
-6.526909222e-15
-6.815202527e-15
-6.783468544e-15
-6.474879369e-15
-6.448484483e-15
-6.402656701e-15
-6.462756549e-15
-6.514580834e-15
-6.291141817e-15
-6.646421305e-15
-6.889177784e-15
-7.013967906e-15
-6.546662685e-15
-6.440701841e-15
-6.760996399e-15
-6.636169322e-15
-6.687072109e-15
-6.570221258e-15
-6.623400101e-15
-6.189113902e-15
-6.710203139e-15
-6.424853263e-15
-6.847290564e-15
-6.689012377e-15
-6.530643122e-15
-6.358244423e-15
-6.581391183e-15
-6.589997599e-15
-6.590646023e-15
-6.221233758e-15
-6.656183247e-15
-6.476924737e-15
-6.570792308e-15
-6.705386e-15
-6.327459762e-15
-5.812523521e-15
-6.07574506e-15
-6.179494326e-15
-6.317387893e-15
-6.875912628e-15
-6.803142195e-15
-6.649264556e-15
-6.653190554e-15
-6.191047744e-15
-6.290652488e-15
-6.207600535e-15
-6.620092778e-15
-6.558914185e-15
-6.853278185e-15
-6.9402767e-15
-5.236495491e-15
-5.826283772e-15
-5.969044793e-15
-6.914078666e-15
-6.124894199e-15
-6.070483554e-15
-6.431120473e-15
-6.017470546e-15
-6.700287968e-15
-7.239615037e-15
-6.206689823e-15
-6.78293493e-15
-6.51825846e-15
-5.807106306e-15
-5.990937187e-15
-6.653514379e-15
-7.137137206e-15
-7.137537114e-15
-4.668849772e-15
-4.848196736e-15
-4.845212794e-15
-4.704626008e-15
-4.798609714e-15
-4.906052901e-15
-4.601866356e-15
-4.26479561e-15
-4.708631936e-15
-4.746169328e-15
-4.719297854e-15
-4.824592699e-15
-4.60579251e-15
-5.396648603e-15
-5.153033321e-15
-5.353143892e-15
-4.991604944e-15
-4.818286693e-15
-5.422817446e-15
-5.32020445e-15
-5.47373644e-15
-5.004996329e-15
-4.84250397e-15
-5.20995312e-15
-4.995867145e-15
-5.229539949e-15
-6.041816347e-15
-5.428245518e-15
-5.000297089e-15
-4.815062106e-15
-4.922491841e-15
-5.327011803e-15
-5.471508119e-15
-5.225652282e-15
-5.342450947e-15
-5.761979973e-15
-5.83342777e-15
-5.493861931e-15
-5.195969052e-15
-5.495777117e-15
-5.428025395e-15
-5.463803213e-15
-5.465221074e-15
-5.401570752e-15
-5.429024628e-15
-6.406376872e-15
-5.647262614e-15
-5.592250173e-15
-5.548533344e-15
-5.221517882e-15
-5.570880198e-15
-6.061909411e-15
-5.266187678e-15
-5.511670016e-15
-5.552581307e-15
-6.35573321e-15
-6.444316549e-15
-5.805757729e-15
-5.839393632e-15
-5.981060404e-15
-5.778646572e-15
-6.196842857e-15
-5.833848352e-15
-5.6889432e-15
-6.008706317e-15
-6.294929015e-15
-6.426459465e-15
-5.784966744e-15
-6.170653403e-15
-6.075546578e-15
-6.138685292e-15
-6.13098382e-15
-6.303861263e-15
-6.702839891e-15
-6.216604072e-15
-6.069853688e-15
-6.237165557e-15
-6.253798983e-15
-6.39572259e-15
-6.113755609e-15
-6.025914342e-15
-6.211285888e-15
-6.244944178e-15
-6.595689069e-15
-6.395204253e-15
-6.437550744e-15
-6.638417748e-15
-6.058715069e-15
-6.788105353e-15
-6.319411677e-15
-6.503451477e-15
-6.492581653e-15
-6.24842957e-15
-6.295950614e-15
-6.491073167e-15
-6.339655452e-15
-6.66800554e-15
-6.63931114e-15
-6.771224672e-15
-6.612744451e-15
-6.594729398e-15
-6.594396076e-15
-6.452544946e-15
-5.983494073e-15
-6.290588678e-15
-6.861753379e-15
-6.645581845e-15
-6.537596732e-15
-6.34641583e-15
-6.432907843e-15
-6.49257787e-15
-6.566459382e-15
-6.736922275e-15
-6.436981277e-15
-6.829292546e-15
-6.714821792e-15
-6.441476395e-15
-6.630299388e-15
-6.560888844e-15
-6.573441922e-15
-6.443012833e-15
-6.675037947e-15
-6.570203251e-15
-6.704779422e-15
-6.451465624e-15
-6.541854055e-15
-6.645355033e-15
-6.343816064e-15
-6.687640608e-15
-6.535592435e-15
-6.844502062e-15
-6.490243393e-15
-6.382356009e-15
-6.724440116e-15
-6.754486771e-15
-7.060810266e-15
-6.662737074e-15
-6.690996229e-15
-6.3892324e-15
-6.053422103e-15
-6.290303839e-15
-6.521699445e-15
-6.79920955e-15
-6.576999205e-15
-6.463548769e-15
-6.715620531e-15
-6.723406363e-15
-6.689868144e-15
-6.419562754e-15
-6.716207652e-15
-6.575493398e-15
-6.754930424e-15
-6.871720887e-15
-6.550738492e-15
-6.29960136e-15
-6.12262545e-15
-5.866822765e-15
-6.578691647e-15
-6.188416279e-15
-6.682616453e-15
-6.834312316e-15
-6.808658201e-15
-6.713037991e-15
-6.636840975e-15
-6.483144162e-15
-5.961031713e-15
-6.889130861e-15
-6.680193671e-15
-6.483714569e-15
-7.330626643e-15
-7.378192393e-15
-5.474658006e-15
-5.682815908e-15
-5.666033529e-15
-6.426814648e-15
-5.556864933e-15
-5.910826212e-15
-6.463987975e-15
-6.199749146e-15
-7.037669569e-15
-7.619905954e-15
-6.72546557e-15
-6.369422936e-15
-6.986956362e-15
-6.256700828e-15
-6.252981599e-15
-6.625771362e-15
-7.13073791e-15
-7.868588523e-15
-7.981666433e-15
-4.407966606e-15
-4.044430025e-15
-4.268603182e-15
-5.020135233e-15
-4.817482767e-15
-5.181759725e-15
-4.92041041e-15
-4.910261143e-15
-4.878858462e-15
-4.296688953e-15
-4.542237805e-15
-4.692168777e-15
-4.674152731e-15
-4.9537704e-15
-4.990013305e-15
-4.548808047e-15
-4.902977401e-15
-4.608115015e-15
-5.010709697e-15
-4.949205598e-15
-5.567818394e-15
-4.884507342e-15
-4.913709843e-15
-5.025149631e-15
-4.905209333e-15
-5.09153236e-15
-5.274468488e-15
-5.248030626e-15
-5.324889684e-15
-5.127487294e-15
-5.388919677e-15
-5.08555278e-15
-5.259223092e-15
-5.680358582e-15
-5.681730801e-15
-5.843622495e-15
-5.580602114e-15
-5.140431603e-15
-5.081418324e-15
-5.468321244e-15
-5.367209905e-15
-5.127501289e-15
-5.350074007e-15
-5.757586252e-15
-5.831151065e-15
-5.746849305e-15
-5.482353107e-15
-5.585266785e-15
-5.177454655e-15
-5.904061765e-15
-5.479353521e-15
-5.601529247e-15
-5.641468317e-15
-5.677745973e-15
-5.201824162e-15
-6.136959515e-15
-6.042443207e-15
-5.751386134e-15
-5.717688966e-15
-5.484015197e-15
-5.525407054e-15
-5.933351016e-15
-5.639630394e-15
-5.195727506e-15
-5.640205415e-15
-5.8946436e-15
-6.123290189e-15
-6.357838722e-15
-6.05798169e-15
-6.080968289e-15
-5.955746876e-15
-5.695304576e-15
-6.05415857e-15
-6.226357585e-15
-5.810201512e-15
-6.122138101e-15
-6.410915247e-15
-5.637079332e-15
-6.190938889e-15
-6.227804486e-15
-6.042042497e-15
-6.083625897e-15
-6.35737952e-15
-6.092840312e-15
-6.325482923e-15
-6.291836559e-15
-6.607691802e-15
-6.369349157e-15
-6.474787832e-15
-5.738004527e-15
-6.514025575e-15
-6.656809441e-15
-6.200159745e-15
-6.197416479e-15
-6.162413086e-15
-6.753517161e-15
-6.226492105e-15
-6.7826712e-15
-6.716733517e-15
-6.772768163e-15
-6.071159101e-15
-6.365823231e-15
-6.582993779e-15
-6.380181573e-15
-6.395418835e-15
-6.555078553e-15
-6.458330211e-15
-6.230600666e-15
-6.26689496e-15
-6.322177944e-15
-6.5246824e-15
-6.652956779e-15
-6.799679105e-15
-6.722780694e-15
-6.857216108e-15
-6.726290536e-15
-6.371668875e-15
-6.076082987e-15
-6.568168905e-15
-6.447542964e-15
-6.91398499e-15
-6.928330861e-15
-6.655429559e-15
-6.345662565e-15
-6.697253823e-15
-6.29556467e-15
-6.543977997e-15
-6.307288273e-15
-6.429995338e-15
-6.423342915e-15
-6.886197515e-15
-6.58285138e-15
-6.528618499e-15
-6.452218648e-15
-6.310358185e-15
-6.865530253e-15
-6.413773998e-15
-6.820487881e-15
-6.559653441e-15
-6.753153557e-15
-6.442121047e-15
-6.75059404e-15
-6.725545911e-15
-6.450930423e-15
-6.267219221e-15
-6.478027093e-15
-6.859033259e-15
-6.783077969e-15
-6.647339914e-15
-6.727859741e-15
-6.739862271e-15
-7.092735744e-15
-7.120178826e-15
-6.313053026e-15
-6.6352433e-15
-6.270911715e-15
-6.153046444e-15
-6.367734122e-15
-6.652374701e-15
-6.861313403e-15
-6.837691025e-15
-6.379870132e-15
-6.771689172e-15
-6.860937842e-15
-6.671479115e-15
-6.634489751e-15
-6.673094343e-15
-6.816637027e-15
-6.699199484e-15
-7.193781747e-15
-7.359406255e-15
-6.374667695e-15
-6.203805615e-15
-6.233738136e-15
-6.328527227e-15
-6.484964898e-15
-6.428860355e-15
-6.339004927e-15
-6.363086725e-15
-6.756132111e-15
-6.637879874e-15
-6.730355741e-15
-6.660993388e-15
-6.471939757e-15
-6.646664867e-15
-6.692526614e-15
-6.744828673e-15
-7.121412717e-15
-7.117519671e-15
-8.008423455e-15
-5.61055784e-15
-5.750689435e-15
-5.396587258e-15
-5.984244143e-15
-5.85717353e-15
-5.644512657e-15
-6.365247084e-15
-6.033151617e-15
-6.153473313e-15
-7.399203094e-15
-6.881395389e-15
-7.650535243e-15
-6.707719603e-15
-7.374060523e-15
-7.098905749e-15
-6.755514826e-15
-6.983741699e-15
-7.757911889e-15
-8.034297758e-15
-7.670978258e-15
-3.572795365e-15
-3.874422116e-15
-4.410877995e-15
-4.428101169e-15
-4.345795227e-15
-4.850070448e-15
-4.939842738e-15
-4.763228645e-15
-4.793822057e-15
-5.369877263e-15
-5.359238419e-15
-5.228649832e-15
-4.879573296e-15
-4.777134508e-15
-5.074479516e-15
-4.959065097e-15
-4.832489535e-15
-5.045037178e-15
-4.840115119e-15
-4.480202098e-15
-5.475742327e-15
-4.891920545e-15
-4.933344412e-15
-5.091622535e-15
-5.21931661e-15
-4.846355944e-15
-5.150102574e-15
-5.51833405e-15
-5.443845842e-15
-5.203879746e-15
-4.946233334e-15
-5.19019742e-15
-5.414657545e-15
-5.260504385e-15
-5.36061951e-15
-5.247807664e-15
-5.373366918e-15
-5.184441594e-15
-5.348871807e-15
-5.004727623e-15
-5.277427191e-15
-5.2848528e-15
-5.33637642e-15
-5.688893701e-15
-5.71069926e-15
-5.081006487e-15
-5.503474036e-15
-5.351688656e-15
-5.160589524e-15
-5.581237551e-15
-5.457487101e-15
-5.294375571e-15
-5.577747216e-15
-5.869631613e-15
-5.574440047e-15
-5.922204214e-15
-5.684184791e-15
-5.75511715e-15
-5.678200332e-15
-5.407711394e-15
-5.592174098e-15
-5.203898308e-15
-5.724422749e-15
-5.584207362e-15
-5.621943466e-15
-5.751742463e-15
-5.929427316e-15
-6.258680307e-15
-5.672838396e-15
-5.647324475e-15
-5.798608595e-15
-5.76896562e-15
-5.843685235e-15
-5.935982427e-15
-5.786168292e-15
-5.42346577e-15
-5.539674062e-15
-5.867622293e-15
-6.464503492e-15
-6.323263236e-15
-6.120460326e-15
-6.11091386e-15
-6.26362541e-15
-5.855986737e-15
-6.0627287e-15
-6.460353753e-15
-6.139441367e-15
-5.876247251e-15
-6.098057015e-15
-5.757009276e-15
-5.879844116e-15
-6.448465248e-15
-6.437812635e-15
-6.25611379e-15
-6.243299927e-15
-6.284561982e-15
-6.541723543e-15
-6.931802037e-15
-6.805196537e-15
-6.723119971e-15
-6.690086612e-15
-6.586084055e-15
-6.35227264e-15
-6.530478036e-15
-6.799965932e-15
-6.058806433e-15
-6.384912641e-15
-6.19107703e-15
-6.398889818e-15
-6.138237998e-15
-6.514026867e-15
-6.478033623e-15
-6.878484215e-15
-6.861271072e-15
-6.400465979e-15
-6.231600963e-15
-6.052688494e-15
-6.567484198e-15
-6.665376253e-15
-6.728522217e-15
-6.808484321e-15
-6.440873647e-15
-6.232065148e-15
-6.380119198e-15
-6.462487176e-15
-6.635795065e-15
-6.56218921e-15
-6.964794072e-15
-6.975325648e-15
-6.789320258e-15
-6.529029874e-15
-6.379536839e-15
-6.170315712e-15
-6.412018927e-15
-6.335845412e-15
-6.782141222e-15
-6.681909617e-15
-6.713841563e-15
-6.829463104e-15
-6.643116286e-15
-6.465186779e-15
-6.552195199e-15
-6.320145972e-15
-6.535126419e-15
-6.391383893e-15
-6.495168603e-15
-6.907453798e-15
-6.930897524e-15
-6.590552692e-15
-6.513693926e-15
-6.330095725e-15
-6.452189059e-15
-7.036824498e-15
-6.559612552e-15
-6.783450401e-15
-6.655715888e-15
-6.245969171e-15
-6.502765087e-15
-6.66504361e-15
-6.656199832e-15
-6.791135447e-15
-6.287299694e-15
-5.957242853e-15
-6.845931585e-15
-6.68826141e-15
-6.889314365e-15
-6.488428023e-15
-7.150495369e-15
-7.018840141e-15
-6.768902152e-15
-7.236626546e-15
-6.177431638e-15
-6.648281108e-15
-6.490667794e-15
-6.280153944e-15
-6.492417626e-15
-6.497444425e-15
-6.444507375e-15
-6.924187369e-15
-6.364995708e-15
-6.344172847e-15
-6.940602435e-15