/*--------------------------------*- C++ -*----------------------------------*\
| =========                 |                                                 |
| \\      /  F ield         | OpenFOAM: The Open Source CFD Toolbox           |
|  \\    /   O peration     | Version:  2212                                  |
|   \\  /    A nd           | Website:  www.openfoam.com                      |
|    \\/     M anipulation  |                                                 |
\*---------------------------------------------------------------------------*/
FoamFile
{
    version     2.0;
    format      ascii;
    arch        "LSB;label=32;scalar=64";
    class       surfaceScalarField;
    location    "0.2";
    object      phi;
}
// * * * * * * * * * * * * * * * * * * * * * * * * * * * * * * * * * * * * * //

dimensions      [0 3 -1 0 0 0 0];

oriented        oriented;

internalField   nonuniform List<scalar> 
124950
(
0.0025
-1.826050403e-20
-1.511659827e-19
0.0025
-8.992556543e-19
-5.112573139e-19
0.0025
-2.453558408e-19
-3.552319322e-19
0.0025
-2.674485105e-19
-3.759095543e-19
0.0025
-1.480971149e-18
-7.166498421e-19
0.0025
-1.281861306e-18
-6.95240506e-19
0.0025
-8.875293727e-19
-2.769365651e-19
0.0025
-4.478814789e-19
-3.209262855e-19
0.0025
-3.372425904e-19
-2.965280195e-19
0.0025
-1.105659985e-19
-3.50164567e-19
0.0025
-9.757538122e-19
-2.242308167e-19
0.0025
-1.390071937e-18
-3.161538191e-19
0.0025
-8.928516676e-19
-4.94261123e-19
0.0025
-1.189993048e-18
-1.192818775e-19
0.0025
-5.707910727e-19
-4.009936756e-19
0.0025
-1.093306445e-18
-1.010194483e-18
0.0025
-3.183485443e-19
-5.578882135e-20
0.0025
-1.733835387e-19
-3.240159789e-19
0.0025
-3.861650751e-19
-2.221292362e-19
0.0025
-1.490565236e-19
-2.78921546e-19
0.0025
-5.330225265e-19
-4.97630867e-19
0.0025
-8.749384671e-19
-6.178110659e-20
0.0025
-5.284348827e-19
-2.78013059e-19
0.0025
-1.070794109e-18
9.600031963e-20
0.0025
-7.800923248e-19
-2.368607269e-19
0.0025
-8.180187954e-19
-6.283074336e-19
0.0025
-5.662911237e-19
3.238875692e-19
0.0025
-5.076982371e-19
-2.160211681e-19
0.0025
-6.101679183e-19
-3.236635713e-19
0.0025
-4.53941524e-19
-6.999964738e-19
0.0025
-1.442712454e-19
1.502451968e-20
0.0025
-2.730604198e-19
-4.001498603e-19
0.0025
-3.658040098e-19
-2.681647907e-19
0.0025
-2.584288169e-19
1.605322547e-19
0.0025
4.273225423e-19
-6.326468228e-21
0.0025
-2.830077388e-19
-1.246282606e-18
0.0025
-1.768965935e-19
1.682764961e-19
0.0025
2.86552067e-19
1.262257361e-19
0.0025
-4.313595912e-19
2.98214446e-19
0.0025
-3.600612134e-19
-1.087781468e-19
0.0025
-5.516377746e-19
-3.141002864e-19
0.0025
-6.19170064e-19
3.339757554e-19
0.0025
-6.280111975e-19
1.044099413e-19
0.0025
-7.313945706e-19
-3.441813485e-19
0.0025
-4.575878605e-19
-6.655716842e-19
0.0025
-5.435753281e-19
2.400732335e-19
0.0025
-5.00087854e-19
4.478081164e-20
0.0025
-4.634777273e-19
-1.741190522e-19
0.0025
-2.905399398e-19
-3.868503758e-19
0.0025
-1.417197278e-19
-1.731337288e-19
0.0025
-4.619844064e-20
2.689295918e-19
0.0025
2.278997044e-19
5.849567984e-20
0.0025
-1.219685101e-19
-1.442272065e-22
0.0025
1.35020208e-19
1.700468565e-19
0.0025
-3.40516153e-19
-1.424462739e-19
0.0025
1.628799823e-19
-1.375919452e-19
0.0025
-3.852056829e-19
-1.591027333e-18
0.0025
-3.214775311e-19
-3.381142105e-19
0.0025
6.584848718e-19
-6.530676229e-19
0.0025
-1.042733514e-19
-1.402715238e-20
0.0025
-1.637163266e-19
-7.581182068e-20
0.0025
-1.827171521e-19
-9.930670266e-20
0.0025
-1.637452268e-19
3.179607878e-19
0.0025
-3.782835644e-19
4.741080104e-20
0.0025
-6.3627633e-19
-5.524742989e-19
0.0025
-4.45073645e-19
-2.484308809e-19
0.0025
-8.091863326e-19
2.210167396e-19
0.0025
-6.315278624e-19
3.271876716e-19
0.0025
-5.525928206e-19
8.021419865e-20
0.0025
-3.469354149e-19
-6.498606628e-19
0.0025
-3.567645656e-19
-3.486162353e-19
0.0025
-1.027681482e-18
1.361087148e-19
0.0025
-5.367226249e-19
3.206300134e-19
0.0025
-3.688256502e-19
-7.200881844e-20
0.0025
-1.604637514e-19
1.655592896e-19
0.0025
1.730737329e-19
2.815014142e-20
0.0025
-4.102124036e-20
-2.050657237e-19
0.0025
-8.808463798e-19
-1.647075007e-19
0.0025
-3.247280544e-19
-2.984387974e-19
0.0025
-7.725969358e-20
4.581541404e-19
0.0025
4.605204546e-19
2.00372872e-19
0.0025
-1.395603246e-19
1.915542656e-19
0.0025
2.240426651e-20
-7.767589435e-20
0.0025
3.45498812e-19
-7.543943705e-20
0.0025
1.335404094e-19
-6.841016505e-19
0.0025
-2.524982799e-19
-6.500705906e-19
0.0025
5.58968043e-19
-8.152289817e-19
0.0025
-4.530364072e-19
-3.892950013e-19
0.0025
1.596592801e-20
-5.702781027e-19
0.0025
3.35884287e-19
-3.027787051e-19
0.0025
1.441800238e-19
-2.23836003e-19
0.0025
-4.274849136e-19
-1.396489978e-19
0.0025
-3.656887995e-19
-4.382041945e-19
0.0025
-2.186358037e-19
-9.003577397e-20
0.0025
-7.651894735e-19
-6.04196317e-20
0.0025
-6.422037847e-19
1.684841848e-19
0.0025
-3.94342366e-19
7.944039575e-20
0.0025
1.408406369e-20
-7.203087389e-19
0.0025
-7.430837333e-19
-3.696750607e-19
0.0025
-8.283986861e-19
2.467548926e-19
0.0025
-7.465785567e-19
3.146077112e-19
0.0025
-5.312172447e-19
3.14490007e-19
0.0025
-1.620168497e-19
-2.008925772e-19
0.0025
4.900198961e-20
-3.709271726e-19
0.0025
-5.252982653e-19
-3.255802117e-19
0.0025
-4.152698708e-19
6.327200303e-19
0.0025
-5.542134154e-19
3.759995446e-19
0.0025
-4.329152994e-19
-3.234239156e-19
0.0025
-5.049713143e-19
-1.302179132e-19
0.0025
-5.367246079e-19
-1.683790835e-19
0.0025
-1.684095985e-20
-4.093507344e-19
0.0025
-1.299062676e-19
-5.378471207e-19
0.0025
-4.624778588e-19
3.921719451e-19
0.0025
-3.047805379e-19
-1.317572539e-21
0.0025
1.488312915e-20
2.055539032e-19
0.0025
-1.678219834e-19
-3.07688901e-19
0.0025
-1.598083254e-19
1.203154066e-19
0.0025
5.366406453e-21
1.321083355e-19
0.0025
2.90940898e-20
-1.385171325e-19
0.0025
1.761263075e-19
-4.704408006e-19
0.0025
2.525413589e-20
-2.274850858e-19
0.0025
2.818071846e-19
-3.203329397e-19
0.0025
3.568535169e-19
-7.407701267e-19
0.0025
-6.66259637e-19
-8.002470906e-19
0.0025
2.091122907e-19
-5.429655496e-19
0.0025
3.125490649e-19
-4.44393208e-19
0.0025
-4.25260664e-19
-4.444210018e-19
0.0025
-5.557139691e-19
-5.316016239e-19
0.0025
1.716309944e-19
-4.329655792e-19
0.0025
4.452787784e-19
-2.245448602e-20
0.0025
-4.188767118e-19
-4.310978723e-19
0.0025
-2.00127445e-19
9.685814672e-20
0.0025
-4.120486333e-19
-4.082519223e-19
0.0025
-2.204846084e-19
-5.158801158e-19
0.0025
-5.947429764e-19
-3.200113489e-19
0.0025
-5.162890545e-19
5.369583172e-20
0.0025
-6.852053313e-19
-9.397566018e-20
0.0025
-5.157844966e-19
1.4885751e-19
0.0025
-2.597996488e-19
-4.288738129e-19
0.0025
2.817149698e-20
-3.216177496e-19
0.0025
-7.915659469e-19
-7.655285981e-19
0.0025
-3.169498985e-19
7.558047441e-19
0.0025
-4.237664476e-19
5.369359054e-19
0.0025
-5.884395585e-19
7.415597814e-20
0.0025
-6.37557258e-19
-4.269341222e-19
0.0025
-3.467365246e-19
-2.084346049e-19
0.0025
5.276234543e-20
-2.119597013e-19
0.0025
-2.641624184e-19
-5.426700993e-19
0.0025
-6.357884812e-19
5.795129511e-19
0.0025
-2.843765683e-19
3.636373928e-19
0.0025
-6.087116678e-19
-3.236778124e-20
0.0025
-1.162522562e-19
7.907098235e-20
0.0025
-4.522934369e-19
-7.487183654e-20
0.0025
-3.057084832e-19
-3.329512786e-19
0.0025
-1.7845108e-19
-3.009352609e-19
0.0025
-1.054806441e-19
-5.184126585e-19
0.0025
-2.458061292e-19
5.905119188e-19
0.0025
3.715774454e-20
3.754365766e-20
0.0025
-3.625155609e-19
-8.606613905e-20
0.0025
-5.949571799e-19
-4.594179492e-19
0.0025
-3.085968599e-19
-3.41247932e-19
0.0025
-4.243149258e-19
-3.559097474e-19
0.0025
-4.18377586e-19
-3.940706917e-19
0.0025
-4.466008138e-20
1.60033614e-19
0.0025
6.028268544e-19
4.954580123e-20
0.0025
-3.090467454e-19
-1.447024447e-19
0.0025
5.935407329e-19
-9.043723019e-20
0.0025
-1.401145628e-19
-3.164718944e-19
0.0025
-2.457354762e-19
-1.044079267e-18
0.0025
2.913435484e-20
-3.458473578e-19
0.0025
3.514578065e-19
-3.942010958e-19
0.0025
-8.560915359e-19
-1.429562866e-19
0.0025
-6.325987986e-20
-5.073714944e-19
0.0025
4.846497931e-19
-4.507894822e-19
0.0025
4.381548924e-19
-2.034856841e-19
0.0025
-3.569398738e-19
-4.924284444e-19
0.0025
-3.520572168e-19
-2.814528964e-19
0.0025
-4.57001621e-19
-7.0902591e-19
0.0025
-9.685503347e-20
-2.802518109e-19
0.0025
-1.661109788e-19
-8.636242271e-19
0.0025
-6.502337104e-19
-5.226452885e-19
0.0025
-3.78796067e-19
-4.135216599e-19
0.0025
-2.54526577e-19
-2.179781307e-19
0.0025
-3.469094899e-19
-4.374996076e-19
0.0025
-4.277281397e-19
-4.846551062e-19
0.0025
-6.98365192e-19
-8.971857726e-19
0.0025
-1.319193607e-19
4.53552549e-19
0.0025
-9.111888557e-20
3.477065348e-19
0.0025
-4.209211406e-19
1.438390608e-19
0.0025
-5.600411145e-19
-3.494175516e-19
0.0025
1.447909843e-20
-3.104935269e-19
0.0025
-4.839131965e-20
-3.056201532e-19
0.0025
-5.079851871e-19
-6.806614652e-19
0.0025
-3.490833559e-19
5.159097892e-19
0.0025
-3.902839389e-19
3.133924027e-19
0.0025
-6.537945412e-19
2.170914134e-19
0.0025
-5.300941501e-19
-2.85904577e-20
0.0025
-4.507651715e-19
-2.640417693e-19
0.0025
-2.216459789e-19
-1.902683113e-19
0.0025
6.251037094e-20
-3.579008198e-19
0.0025
-4.223483683e-19
-5.341947274e-19
0.0025
-6.744554887e-19
5.153661869e-19
0.0025
-5.655267745e-19
2.371777641e-19
0.0025
-5.790292917e-19
1.453621007e-19
0.0025
-4.859653219e-19
-2.6520888e-19
0.0025
-3.622654891e-19
-1.386595063e-19
0.0025
-5.000389044e-19
-3.141731126e-19
0.0025
-2.358377987e-19
-9.144502643e-20
0.0025
3.761129801e-19
-1.147693359e-20
0.0025
1.78562906e-20
-4.138183778e-19
0.0025
-5.157258245e-19
6.681285572e-19
0.0025
-3.218133386e-20
-1.62767182e-19
0.0025
-3.298324874e-19
-4.355355155e-20
0.0025
-3.529061384e-19
1.855881464e-19
0.0025
2.964790995e-20
-1.824566087e-19
0.0025
-2.104226688e-19
-1.932843767e-19
0.0025
-2.346325477e-19
-2.589561968e-19
0.0025
-3.537419472e-19
-3.91795501e-19
0.0025
-4.659867976e-19
7.127880859e-20
0.0025
6.920854344e-19
1.245060303e-19
0.0025
4.121465321e-20
4.883012636e-19
0.0025
2.380484342e-19
-9.992377332e-20
0.0025
-5.824698204e-19
-2.618395276e-19
0.0025
2.619418116e-19
-7.461549492e-19
0.0025
1.238781009e-19
1.709093775e-19
0.0025
1.871420238e-19
-4.242726954e-19
0.0025
-6.391597897e-19
-3.547164111e-19
0.0025
2.173205175e-19
-5.813176444e-19
0.0025
2.833229436e-21
-2.827551079e-19
0.0025
5.216137901e-19
-3.182109318e-19
0.0025
-5.602766506e-19
-1.780316968e-22
0.0025
-2.45752831e-19
-2.910082725e-19
0.0025
-5.033697065e-21
-8.148989127e-19
0.0025
1.09150084e-19
-2.404064387e-19
0.0025
2.236132815e-20
-1.698958418e-19
0.0025
-6.784329852e-19
-5.422057181e-19
0.0025
-2.12512544e-19
-5.377939876e-19
0.0025
-5.238758725e-19
-4.51268592e-19
0.0025
-4.367929237e-19
-6.903605142e-19
0.0025
-4.353852324e-19
-5.296110722e-19
0.0025
3.408826725e-19
-2.262615349e-19
0.0025
2.839831551e-20
7.632406076e-20
0.0025
-3.751782105e-19
-3.445531692e-19
0.0025
-3.03363303e-19
-3.922315539e-19
0.0025
-4.987089525e-19
-2.609536811e-19
0.0025
-3.853628442e-20
-5.607284215e-19
0.0025
-3.717638359e-19
-4.157072636e-19
0.0025
-5.788250216e-19
-5.841889953e-19
0.0025
-4.047040739e-19
-1.006753812e-19
0.0025
-5.131402817e-19
-1.666893267e-19
0.0025
-5.625925889e-19
4.022823527e-19
0.0025
-7.011141881e-19
-1.77333358e-19
0.0025
-9.103256938e-20
-5.437957276e-19
0.0025
-2.058691157e-19
-8.506727204e-19
0.0025
-1.015333981e-19
-2.718150443e-19
0.0025
-4.515624094e-19
-4.827104637e-19
0.0025
-5.239187263e-19
5.398099864e-19
0.0025
-3.455182073e-19
3.827186548e-19
0.0025
-5.82477405e-19
9.227735185e-20
0.0025
-5.449563803e-19
-5.89331225e-21
0.0025
-4.010134757e-19
-2.917222255e-20
0.0025
-2.292328291e-19
-2.833673021e-19
0.0025
-4.869217824e-19
-5.642521117e-19
0.0025
-1.719584538e-20
-2.28024665e-19
0.0025
-2.240626271e-19
-9.356627828e-19
0.0025
-1.575151704e-19
9.292492681e-19
0.0025
-3.09760941e-19
3.747080013e-19
0.0025
-4.546383875e-19
2.611630769e-19
0.0025
-3.461345193e-19
-1.239125462e-19
0.0025
-4.684148818e-19
-2.264107866e-19
0.0025
-3.962260163e-19
-2.297219666e-19
0.0025
-3.628833935e-19
-2.671714885e-19
0.0025
-5.499132721e-19
-6.114538442e-19
0.0025
1.104230017e-19
-8.843466457e-20
0.0025
2.991595816e-19
-6.039406389e-19
0.0025
-9.265148313e-20
1.056844983e-18
0.0025
-1.790089813e-19
-1.414560487e-19
0.0025
-1.696112436e-19
1.121790491e-19
0.0025
-6.819604593e-20
-1.017671987e-19
0.0025
-5.224174783e-19
8.633112856e-20
0.0025
3.247370477e-19
-6.09154862e-20
0.0025
-2.376769567e-19
-2.644907629e-19
0.0025
-3.215083334e-19
-2.026079175e-19
0.0025
-1.945976076e-19
2.554373129e-19
0.0025
-1.744901547e-19
-4.944445368e-19
0.0025
-3.112218657e-20
-2.747192464e-19
0.0025
3.922407819e-19
5.657916563e-19
0.0025
-2.536821342e-19
1.165113527e-19
0.0025
-3.908839575e-19
-2.44420138e-20
0.0025
4.373147093e-19
-4.039039335e-19
0.0025
1.63433083e-20
3.458727841e-19
0.0025
-9.925762643e-20
-2.043496376e-19
0.0025
-2.692475689e-19
-3.902421723e-19
0.0025
4.166129387e-19
-2.401005367e-19
0.0025
-6.596258939e-20
-2.175333661e-19
0.0025
2.838636023e-19
-4.328956532e-20
0.0025
-4.457821365e-19
-3.35880668e-19
0.0025
-1.163192329e-19
-4.07023281e-19
0.0025
2.174639406e-19
-4.301717549e-19
0.0025
-4.085973101e-20
-2.166646685e-19
0.0025
4.378550424e-19
2.569553199e-19
0.0025
-9.190888084e-20
1.738327289e-19
0.0025
-4.1950797e-19
-5.183201832e-19
0.0025
-5.752145383e-19
-7.76301391e-19
0.0025
-2.204569451e-19
-6.530360088e-19
0.0025
-1.492873575e-21
8.757404534e-20
0.0025
3.187817447e-19
-2.534967866e-19
0.0025
-3.337667591e-19
-9.661519098e-20
0.0025
-5.340806255e-19
-6.799242115e-19
0.0025
-3.108686179e-19
-4.042560652e-19
0.0025
-3.87669635e-19
-4.389781528e-19
0.0025
-2.317819921e-19
-6.0197205e-19
0.0025
-3.180635518e-19
-4.274626397e-19
0.0025
5.099159336e-20
-5.668623189e-21
0.0025
-1.167301901e-18
-7.731414105e-19
0.0025
-2.795922071e-19
-1.098937262e-19
0.0025
-4.489325975e-19
-2.128663355e-19
0.0025
-7.244886902e-19
-3.325260108e-19
0.0025
-7.995700902e-20
-5.083858888e-19
0.0025
-1.524919584e-19
-7.938058562e-19
0.0025
-4.449764257e-19
-3.870417485e-19
0.0025
-3.120404428e-19
-3.146344295e-19
0.0025
-7.388050158e-19
-2.201441093e-19
0.0025
-6.094295294e-19
-6.263464063e-20
0.0025
-5.30128304e-19
-8.710432053e-20
0.0025
-5.393989268e-19
1.728379671e-19
0.0025
-2.304947166e-19
-3.512328709e-19
0.0025
-2.171689087e-19
-5.796084799e-19
0.0025
-2.153451986e-19
-4.906779686e-19
0.0025
-2.409166445e-19
-3.29423721e-19
0.0025
-2.290926598e-19
-5.853920735e-19
0.0025
-1.330038542e-19
6.220672595e-19
0.0025
-5.665258693e-19
6.277900379e-20
0.0025
-5.432371956e-19
2.190686843e-19
0.0025
-4.62936595e-19
-2.054222882e-20
0.0025
-7.067753954e-19
-2.881236603e-19
0.0025
-4.679149114e-19
-3.778270111e-19
0.0025
-4.080260095e-19
-8.26152703e-20
0.0025
-1.450987489e-19
-5.798637955e-19
0.0025
8.103874973e-21
-3.513817762e-19
0.0025
1.395163834e-19
-8.127633253e-19
0.0025
-1.57018553e-20
8.824986315e-19
0.0025
-2.456207495e-19
5.897538563e-19
0.0025
-8.573987721e-20
1.629034188e-19
0.0025
-4.08147675e-19
-3.753321543e-20
0.0025
-1.432763645e-19
4.986631785e-21
0.0025
-3.679908219e-19
-2.262706314e-19
0.0025
-3.925481135e-19
-1.735442756e-19
0.0025
-2.713649095e-19
1.232401097e-20
0.0025
-2.034427465e-19
-3.147231479e-19
0.0025
1.417090747e-19
-3.796193126e-19
0.0025
2.691025864e-19
-5.584880374e-19
0.0025
8.515300056e-19
1.00900913e-18
0.0025
-3.244171142e-19
-8.168681191e-20
0.0025
-1.848561778e-19
1.944612618e-19
0.0025
6.339043482e-20
-1.181147802e-19
0.0025
-3.811227437e-19
1.202688854e-19
0.0025
-3.029181891e-19
-4.707458821e-19
0.0025
-1.067704149e-19
-8.72195923e-20
0.0025
-1.016232424e-19
-2.695163505e-19
0.0025
-1.962966868e-19
-2.925844903e-20
0.0025
-6.114217494e-19
-5.717063111e-19
0.0025
-2.118144037e-19
-2.46158462e-20
0.0025
3.195840398e-19
-5.641878272e-19
0.0025
3.486176072e-19
4.127316838e-19
0.0025
5.951693366e-20
3.324700863e-19
0.0025
1.614731834e-19
2.487373856e-19
0.0025
2.171046467e-19
2.047464966e-19
0.0025
-1.385423033e-19
4.010470178e-19
0.0025
-1.87894488e-20
-1.19552386e-19
0.0025
-7.95619094e-21
-5.186769605e-19
0.0025
3.295321079e-19
7.073401851e-20
0.0025
2.001112084e-20
7.21413073e-20
0.0025
8.225183227e-20
4.174321747e-21
0.0025
-2.007331417e-19
-3.136428947e-19
0.0025
1.331574287e-19
-6.411450373e-19
0.0025
3.109841032e-20
-2.095405288e-19
0.0025
1.100310526e-20
3.291303114e-20
0.0025
3.014517939e-19
-2.466319097e-19
0.0025
-5.419572638e-20
2.690129155e-19
0.0025
4.939229539e-21
-2.877776727e-19
0.0025
-2.480323318e-19
-5.252296961e-19
0.0025
1.431160334e-20
-3.012955541e-19
0.0025
1.415723042e-19
1.217464981e-19
0.0025
3.846390829e-19
6.340276987e-20
0.0025
-5.385269938e-19
-1.691328288e-19
0.0025
-3.876895102e-19
-2.301643381e-19
0.0025
-4.550279282e-19
-5.365691212e-19
0.0025
-1.850515765e-19
-3.937252299e-19
0.0025
-6.452967646e-20
-5.402792343e-19
0.0025
-4.111972052e-19
-5.367168795e-19
0.0025
3.205286781e-19
-9.250137615e-20
0.0025
-1.029926137e-18
-5.207212007e-19
0.0025
-3.802458034e-19
-2.512348125e-19
0.0025
-3.241670496e-19
-3.775761499e-19
0.0025
-2.282432862e-19
-4.51014768e-19
0.0025
-1.086657328e-19
-3.53832106e-19
0.0025
-2.805654873e-19
-4.241136592e-19
0.0025
-2.580743795e-19
-3.653008236e-19
0.0025
-1.341869405e-19
-4.087014924e-19
0.0025
-6.585815793e-19
-7.450340145e-20
0.0025
-9.843190858e-19
-6.769291829e-19
0.0025
-5.299269393e-19
-4.502178451e-19
0.0025
-3.302949967e-19
2.153418113e-19
0.0025
-1.387863262e-19
-4.547512452e-19
0.0025
-3.132001726e-19
-4.42611232e-19
0.0025
1.416720753e-19
-2.937410037e-19
0.0025
-4.463946575e-19
-3.5177079e-19
0.0025
-3.136006279e-19
-4.775360766e-19
0.0025
-2.588020351e-19
-1.200848326e-19
0.0025
-6.947859693e-19
-1.949837363e-19
0.0025
-5.370343705e-19
-1.076827968e-20
0.0025
-6.263899597e-19
-2.030351229e-19
0.0025
-9.080855848e-19
-6.344417831e-19
0.0025
-4.644013711e-19
-5.228089961e-19
0.0025
-1.527889348e-19
-2.781872334e-19
0.0025
1.37090107e-19
-1.084975746e-19
0.0025
-3.619977252e-21
-3.914542515e-19
0.0025
-1.172102429e-19
-4.559533131e-19
0.0025
1.284352387e-19
4.627105985e-19
0.0025
-4.365666112e-19
5.181574691e-19
0.0025
-1.633785327e-19
1.950660249e-19
0.0025
-3.853542569e-19
-1.620112939e-19
0.0025
-5.197406286e-19
5.443330581e-20
0.0025
-6.343796014e-19
-3.551648175e-19
0.0025
-4.332922882e-19
-3.597405066e-19
0.0025
-3.614169969e-19
-1.695472783e-19
0.0025
-7.757255006e-20
-4.136019749e-19
0.0025
1.541065066e-19
-2.453919243e-19
0.0025
4.628208998e-19
-6.638581505e-19
0.0025
2.67221319e-19
5.98061362e-19
0.0025
-3.179445185e-19
7.452879059e-19
0.0025
-9.831553052e-20
3.134789975e-19
0.0025
1.557558363e-19
4.309395436e-19
0.0025
-2.566507002e-19
-1.392178988e-19
0.0025
-6.624989686e-20
5.493210651e-20
0.0025
-1.304113519e-19
-7.828928964e-20
0.0025
-3.734284253e-19
-9.091892553e-20
0.0025
-1.144298795e-19
-1.628181538e-19
0.0025
-3.273079053e-19
-3.911041967e-19
0.0025
2.72519889e-19
-2.051037707e-19
0.0025
5.81938666e-19
-2.655354256e-19
0.0025
3.623562243e-19
2.947533785e-19
0.0025
-6.862795632e-20
-3.931981133e-20
0.0025
-9.360952004e-20
4.099386935e-19
0.0025
-1.085896656e-19
-2.432240231e-19
0.0025
1.830956576e-19
5.526182649e-19
0.0025
-1.000787254e-19
-1.638345831e-19
0.0025
-1.701673906e-19
-1.456331071e-19
0.0025
-1.268291564e-19
-3.51909204e-19
0.0025
5.370390857e-21
1.120490723e-19
0.0025
-2.826416477e-19
-9.179910708e-20
0.0025
-1.894737903e-20
-2.268786468e-19
0.0025
-4.388023592e-19
-2.792191017e-19
0.0025
4.969908338e-19
-3.217437838e-20
0.0025
3.160790455e-19
8.470858967e-19
0.0025
3.744751078e-19
2.77925746e-19
0.0025
2.829336422e-19
3.204424047e-19
0.0025
3.023736945e-19
6.781624465e-19
0.0025
1.209648217e-19
2.996207935e-19
0.0025
5.625681243e-19
4.624597168e-19
0.0025
3.530408445e-19
2.444030917e-19
0.0025
2.433753975e-19
3.129941905e-19
0.0025
-2.287501945e-20
1.562729813e-19
0.0025
1.098516154e-19
-3.975629164e-19
0.0025
-4.196789325e-20
2.442719003e-20
0.0025
6.297724515e-19
6.717142867e-20
0.0025
2.520996978e-19
2.915530753e-20
0.0025
1.276153128e-19
-1.107239596e-20
0.0025
-1.009185602e-19
-5.768236534e-19
0.0025
-1.632637668e-19
4.988504396e-20
0.0025
2.466028441e-19
-1.710230768e-19
0.0025
2.5882181e-19
-3.728992342e-19
0.0025
-1.163040162e-19
-1.496701225e-20
0.0025
4.137043288e-20
-5.0078611e-19
0.0025
3.493048197e-19
1.090827229e-20
0.0025
-5.031198564e-19
-4.017188718e-19
0.0025
-2.510560472e-19
-4.355620363e-20
0.0025
-2.705113112e-19
-3.527384111e-19
0.0025
1.306269054e-20
8.936693258e-20
0.0025
4.458807256e-19
-1.956310164e-19
0.0025
-1.322936507e-19
-5.089983283e-19
0.0025
8.208020278e-20
1.488772502e-19
0.0025
-5.335226493e-19
-6.899452594e-23
0.0025
-4.219576725e-19
-1.430687932e-19
0.0025
-1.314331305e-19
-1.683786997e-19
0.0025
1.775106073e-19
-2.089802967e-19
0.0025
1.425400581e-20
-3.017772755e-19
0.0025
-8.254358545e-20
-1.251316324e-19
0.0025
-1.719685309e-20
-5.680824041e-19
0.0025
-1.607912207e-19
-2.82473438e-19
0.0025
-2.718246372e-19
4.379106074e-19
0.0025
-5.294951167e-19
-3.247254012e-19
0.0025
-1.881767061e-20
-4.339758563e-20
0.0025
-4.023923276e-20
-1.012721712e-20
0.0025
9.692102867e-21
-2.802320946e-19
0.0025
-8.586673547e-20
-4.734555961e-19
0.0025
-7.29742718e-20
-2.386831139e-19
0.0025
-5.18942462e-19
-5.669677313e-19
0.0025
2.620820862e-21
-4.370987687e-19
0.0025
5.840344899e-20
-7.082991955e-20
0.0025
-3.969659113e-19
-7.275060294e-20
0.0025
-6.20089819e-19
-1.033421603e-19
0.0025
-1.577443337e-19
-2.970712999e-19
0.0025
-5.740251268e-19
-3.821235774e-19
0.0025
-3.08317553e-19
-3.532698922e-19
0.0025
-5.810185819e-20
-5.10783541e-19
0.0025
1.739160664e-19
-8.636194801e-20
0.0025
-3.385236862e-19
-2.87035423e-19
0.0025
-3.268305034e-19
-2.837432274e-19
0.0025
-1.932422403e-20
-1.094409692e-19
0.0025
-3.036984516e-19
2.596798899e-19
0.0025
-3.805420241e-19
-9.031418672e-21
0.0025
-3.765092556e-19
-1.28565591e-19
0.0025
-6.865259074e-19
-1.153196246e-19
0.0025
-5.356420046e-19
-4.926294596e-19
0.0025
-2.280083423e-19
-4.232432603e-19
0.0025
-1.417424846e-19
-4.457916543e-19
0.0025
-3.523294551e-19
-5.326780568e-19
0.0025
-1.211503156e-19
-2.502105363e-19
0.0025
-2.147196091e-20
-4.092541523e-19
0.0025
-1.515309571e-19
2.831122083e-19
0.0025
9.345606594e-20
8.611112657e-19
0.0025
-5.936332512e-20
2.942794075e-19
0.0025
-5.670159575e-20
9.111184222e-20
0.0025
-3.191989767e-19
-6.188399846e-20
0.0025
-4.893209248e-19
1.160752487e-19
0.0025
-2.195759712e-19
-1.683914117e-19
0.0025
-3.335208756e-19
-4.664234306e-19
0.0025
-4.148147383e-19
-2.417554415e-19
0.0025
-8.780578873e-20
-4.059993407e-19
0.0025
2.333675033e-19
-3.231202195e-19
0.0025
6.634176999e-19
-1.22655667e-19
0.0025
4.002249501e-19
8.919311394e-19
0.0025
3.316453017e-19
7.873236333e-19
0.0025
-5.006285829e-20
5.422040029e-19
0.0025
-8.223820976e-20
-5.155146184e-20
0.0025
-8.445666926e-20
5.816829803e-20
0.0025
-2.101501233e-19
1.154091459e-19
0.0025
-1.84894388e-19
-7.777238231e-20
0.0025
-4.723922294e-20
1.656139466e-20
0.0025
-2.224961707e-19
-5.64957667e-20
0.0025
-2.151232381e-19
1.402855828e-20
0.0025
1.549179395e-19
-3.774166134e-19
0.0025
2.159652214e-19
-1.295849493e-19
0.0025
7.059008355e-19
-3.126597788e-19
0.0025
2.35933931e-19
2.320342324e-19
0.0025
-5.844785828e-20
1.723702924e-19
0.0025
6.131431536e-19
1.88482652e-19
0.0025
-3.348802257e-19
1.807572519e-19
0.0025
2.253851786e-19
4.195431737e-20
0.0025
-4.583215527e-19
-2.279506367e-19
0.0025
1.424420164e-19
-5.54636239e-20
0.0025
-3.597799327e-20
4.220146681e-19
0.0025
3.801326917e-19
-1.950170836e-20
0.0025
-3.880928608e-20
3.145110065e-20
0.0025
-1.200601433e-19
9.672722299e-20
0.0025
-2.639465078e-20
1.13368647e-19
0.0025
2.890322297e-19
-4.239826824e-20
0.0025
5.659054091e-19
2.496301872e-19
0.0025
1.538711092e-19
1.03023851e-18
0.0025
2.429484495e-19
5.176728981e-19
0.0025
1.707324286e-19
8.000677342e-19
0.0025
7.435549311e-20
7.986255571e-19
0.0025
5.065640222e-19
2.205925902e-19
0.0025
6.693869288e-19
6.348914604e-19
0.0025
2.943484152e-19
3.109139555e-19
0.0025
1.455238409e-19
5.061338403e-19
0.0025
3.565999293e-19
3.249936894e-19
0.0025
1.633475123e-19
1.091524754e-19
0.0025
6.943628317e-19
3.915864035e-19
0.0025
5.03808156e-19
5.086852179e-19
0.0025
2.156342549e-19
1.536587574e-19
0.0025
2.827812986e-19
3.100555949e-20
0.0025
3.525910109e-19
-7.277568747e-20
0.0025
2.564191041e-19
1.671056446e-19
0.0025
2.447096419e-19
6.459079288e-20
0.0025
4.828811372e-19
1.176003784e-19
0.0025
4.083603743e-19
1.865876896e-19
0.0025
2.226176867e-20
-6.71293663e-19
0.0025
1.174533815e-19
-5.921559926e-19
0.0025
-1.42725891e-19
-2.862487504e-19
0.0025
-1.080628545e-19
-2.012766063e-19
0.0025
-1.444540119e-19
-5.192869237e-19
0.0025
9.795823938e-20
2.538304209e-19
0.0025
2.495819912e-19
-1.941584141e-19
0.0025
2.962452647e-19
-4.832912186e-19
0.0025
-1.660784473e-19
-9.257842159e-20
0.0025
-1.97646527e-19
4.927950482e-19
0.0025
-1.255414705e-19
-4.065822827e-19
0.0025
-3.265738562e-19
-4.086446158e-19
0.0025
2.486847625e-19
3.612512775e-19
0.0025
6.837309938e-20
-9.549389849e-20
0.0025
3.707279004e-19
-6.503774133e-20
0.0025
2.59682694e-20
-3.935624054e-19
0.0025
-2.695068223e-19
-2.870123185e-19
0.0025
-5.172710277e-19
3.801113497e-19
0.0025
-1.886682734e-19
3.80093928e-19
0.0025
1.172769135e-19
5.934287899e-20
0.0025
-3.107772004e-20
-2.47553465e-19
0.0025
-6.233989369e-20
-3.519191853e-19
0.0025
1.769555818e-19
-3.152620977e-19
0.0025
-1.373677629e-19
2.792796218e-20
0.0025
-1.120830724e-19
-7.128658286e-19
0.0025
1.168385279e-19
-5.317160157e-19
0.0025
-1.905193796e-20
-1.021546026e-19
0.0025
-3.551116694e-19
1.455139852e-19
0.0025
-4.591491287e-19
-2.396621351e-19
0.0025
-1.82013266e-19
-2.710796359e-19
0.0025
-1.321421798e-19
-7.724874188e-21
0.0025
1.009479281e-19
-1.552786046e-19
0.0025
-1.627538778e-20
-5.236627869e-19
0.0025
-4.586164266e-20
-3.534816753e-19
0.0025
-3.474947367e-19
-4.595215326e-19
0.0025
-4.648994515e-19
-4.260627958e-19
0.0025
1.594020123e-19
-6.127272669e-20
0.0025
4.456050933e-20
4.215673316e-20
0.0025
-3.788241408e-19
4.525627552e-20
0.0025
-3.87656662e-19
-1.51094904e-20
0.0025
-2.082745344e-19
-1.184306417e-19
0.0025
-1.689528019e-19
-2.913181255e-19
0.0025
1.216043635e-20
-1.244889898e-19
0.0025
4.546964251e-20
-3.881659733e-19
0.0025
-1.154076573e-19
-5.798896417e-19
0.0025
-5.458878506e-19
-2.069688631e-19
0.0025
-1.507885191e-19
-3.303762813e-19
0.0025
-1.286531019e-19
-4.703746763e-20
0.0025
7.168680979e-20
1.234515264e-19
0.0025
-3.008709496e-19
1.682043362e-19
0.0025
-2.360051643e-19
-2.631768627e-19
0.0025
-5.243782954e-19
-1.14675008e-19
0.0025
-6.101537241e-19
1.428500574e-19
0.0025
-1.512498045e-19
-3.771837467e-19
0.0025
-1.511412787e-19
-4.079979409e-19
0.0025
-2.089863539e-19
-9.713085554e-20
0.0025
9.279143546e-20
-2.187635482e-19
0.0025
-1.271470067e-20
-3.164449229e-19
0.0025
1.491757456e-19
-2.401364402e-19
0.0025
-3.275282376e-19
7.012343878e-19
0.0025
1.897647854e-19
5.997593258e-19
0.0025
-7.124871522e-20
4.441722345e-19
0.0025
1.182489782e-19
-2.090420069e-19
0.0025
-3.057801572e-19
1.628898152e-19
0.0025
-3.005126475e-19
1.680915475e-19
0.0025
-2.189672919e-19
-4.127000154e-20
0.0025
-8.94799205e-20
-2.705165544e-20
0.0025
-1.183916288e-19
-2.658592405e-19
0.0025
-3.634472742e-19
-6.34081536e-20
0.0025
7.496933931e-20
-2.523000417e-19
0.0025
6.556563118e-19
-3.230273865e-19
0.0025
3.720203807e-19
-4.705621863e-19
0.0025
1.89661242e-19
7.274189409e-19
0.0025
9.618915666e-20
6.506470754e-19
0.0025
4.286466712e-19
4.535695777e-19
0.0025
-1.998966291e-19
2.912756792e-19
0.0025
1.739653176e-19
7.102926759e-20
0.0025
-1.78445531e-19
-4.489111076e-20
0.0025
-1.390979818e-19
-2.348443859e-21
0.0025
-7.569699638e-20
2.329649684e-19
0.0025
-6.271419153e-20
7.630832951e-20
0.0025
1.926425177e-20
2.649466451e-20
0.0025
2.302580854e-20
8.692843843e-20
0.0025
2.422630659e-19
-1.056989318e-19
0.0025
3.67980117e-19
-4.6518962e-19
0.0025
5.124133477e-19
-1.290677382e-20
0.0025
-5.863294807e-19
-2.719592354e-19
0.0025
-1.942054562e-19
5.837601327e-19
0.0025
3.30903212e-19
7.099274463e-20
0.0025
2.538622239e-19
5.81140188e-20
0.0025
-2.109226633e-19
-1.696908185e-19
0.0025
-1.809605932e-19
2.01521826e-19
0.0025
1.263796782e-19
-3.72086508e-19
0.0025
-1.993723393e-19
-2.303298704e-19
0.0025
-4.704796219e-19
2.62205066e-19
0.0025
4.990440427e-19
1.126465464e-19
0.0025
-1.980770486e-20
3.402558428e-19
0.0025
1.819108505e-19
2.752822175e-19
0.0025
3.255945749e-19
-3.760419063e-19
0.0025
-3.044585252e-19
-3.157786113e-19
0.0025
6.138198157e-20
5.634039261e-19
0.0025
-3.695665042e-20
6.158567508e-19
0.0025
2.203609355e-19
7.116581429e-19
0.0025
-8.912220935e-21
1.047488632e-18
0.0025
4.012021706e-19
1.175036561e-18
0.0025
3.698816992e-19
4.304641107e-19
0.0025
2.488179822e-19
4.652955486e-19
0.0025
3.509113904e-19
3.271757708e-19
0.0025
-1.072261282e-19
4.768781745e-19
0.0025
6.855949789e-19
2.483468775e-19
0.0025
2.275798991e-19
5.979000424e-19
0.0025
5.556978811e-19
3.184021516e-19
0.0025
1.846984472e-19
5.034172083e-19
0.0025
7.207760268e-20
3.609090015e-19
0.0025
4.596717508e-19
3.114916831e-19
0.0025
3.651125429e-19
2.763440232e-21
0.0025
2.823067968e-19
-7.228252687e-20
0.0025
2.705571992e-19
2.302443867e-19
0.0025
1.093827898e-19
2.083673089e-19
0.0025
3.307961646e-19
-1.233772141e-19
0.0025
2.436318435e-20
-2.801348429e-19
0.0025
2.972129718e-19
-2.256783361e-19
0.0025
4.957658147e-19
-3.73148007e-20
0.0025
-1.593728576e-19
-1.531417989e-19
0.0025
1.036781151e-19
-1.520773226e-19
0.0025
1.380581135e-19
-3.215897725e-19
0.0025
-1.936158967e-19
-2.725540706e-19
0.0025
4.60877674e-19
-3.492421892e-19
0.0025
8.734285974e-20
-7.818133453e-19
0.0025
-2.548226787e-19
-4.903272514e-20
0.0025
-1.646406904e-19
-2.9930722e-19
0.0025
-3.290731622e-19
-6.399917418e-19
0.0025
2.608197389e-19
2.385126631e-19
0.0025
-1.205115757e-19
-1.344995141e-19
0.0025
2.670223161e-19
-2.665828992e-19
0.0025
1.484102458e-19
-1.654690983e-19
0.0025
2.034893928e-19
-3.54197665e-20
0.0025
-4.197139086e-19
5.56018676e-20
0.0025
-2.8513286e-19
1.856293077e-20
0.0025
3.510816908e-20
1.268235444e-19
0.0025
1.51006755e-19
-2.552746436e-19
0.0025
-4.817826822e-19
-2.222377754e-19
0.0025
7.836594101e-20
-5.05985392e-19
0.0025
5.642565032e-20
1.897669582e-19
0.0025
2.245676682e-19
-5.782609219e-19