/*--------------------------------*- C++ -*----------------------------------*\
| =========                 |                                                 |
| \\      /  F ield         | OpenFOAM: The Open Source CFD Toolbox           |
|  \\    /   O peration     | Version:  2212                                  |
|   \\  /    A nd           | Website:  www.openfoam.com                      |
|    \\/     M anipulation  |                                                 |
\*---------------------------------------------------------------------------*/
FoamFile
{
    version     2.0;
    format      ascii;
    arch        "LSB;label=32;scalar=64";
    class       surfaceScalarField;
    location    "0.2";
    object      phiHbyA;
}
// * * * * * * * * * * * * * * * * * * * * * * * * * * * * * * * * * * * * * //

dimensions      [0 3 -1 0 0 0 0];

oriented        oriented;

internalField   nonuniform List<scalar> 
124950
(
0.0025
-2.958443503e-20
-8.899395765e-20
0.0025
-5.720851048e-19
-1.213367577e-19
0.0025
-2.366859295e-19
-2.300290576e-19
0.0025
-2.153479147e-19
-2.095537152e-19
0.0025
-1.112752576e-18
-5.047640387e-19
0.0025
-9.831654379e-19
-4.012198501e-19
0.0025
-6.559214685e-19
-3.6223716e-19
0.0025
-3.215025885e-19
-1.489486736e-19
0.0025
-2.819695284e-19
-1.973076522e-19
0.0025
-1.248900888e-19
-1.950019872e-19
0.0025
-8.86915239e-19
-3.894535939e-19
0.0025
-1.332567659e-18
-3.186652281e-19
0.0025
-7.398691317e-19
-4.344252888e-19
0.0025
-9.969057766e-19
-1.386089453e-19
0.0025
-5.862019239e-19
-3.517096315e-19
0.0025
-7.27209716e-19
-7.363865139e-19
0.0025
-2.582741769e-19
-1.993173736e-19
0.0025
-3.623409527e-19
-2.935058932e-19
0.0025
-3.996022947e-19
-9.626599372e-20
0.0025
-1.919275169e-19
-2.238834923e-19
0.0025
-5.327127743e-19
-3.172830145e-19
0.0025
-8.971832585e-19
-1.186475646e-19
0.0025
-3.326017957e-19
-1.18292229e-19
0.0025
-1.071887381e-18
7.141018659e-20
0.0025
-7.449152551e-19
-3.10211571e-19
0.0025
-7.982601543e-19
-6.04009863e-19
0.0025
-6.248588299e-19
1.69001808e-19
0.0025
-4.508403461e-19
-2.266995889e-19
0.0025
-6.855412345e-19
-2.719632657e-19
0.0025
-3.090793341e-19
-6.200283235e-19
0.0025
-9.161241405e-20
-6.874595275e-20
0.0025
-1.537089368e-19
-1.82818229e-19
0.0025
-3.679398782e-19
-1.597305536e-19
0.0025
-2.892950418e-19
-5.711514531e-20
0.0025
1.113286383e-19
-2.365336751e-19
0.0025
-3.866541167e-19
-9.745628554e-19
0.0025
-3.967206268e-19
6.388957503e-20
0.0025
3.091724875e-21
-1.711972654e-20
0.0025
-3.715300949e-19
2.69099953e-19
0.0025
-3.545095011e-19
-1.337705618e-19
0.0025
-5.401581801e-19
-1.550685494e-19
0.0025
-7.004502467e-19
3.851549413e-19
0.0025
-5.535325724e-19
8.729687861e-20
0.0025
-6.399797194e-19
-3.295018578e-19
0.0025
-4.473428011e-19
-6.44526948e-19
0.0025
-4.632874003e-19
2.373346323e-19
0.0025
-4.066033292e-19
-6.050423954e-20
0.0025
-5.012264667e-19
-9.297895506e-20
0.0025
-3.364734644e-19
-2.522020482e-19
0.0025
5.839976685e-20
-2.904370318e-19
0.0025
-2.361361707e-19
-4.060795812e-20
0.0025
5.511479746e-20
9.511376105e-20
0.0025
-1.833305772e-19
-3.253669461e-20
0.0025
-7.942364905e-21
7.393090519e-20
0.0025
-2.498509292e-19
-1.497396318e-19
0.0025
6.916545116e-20
-1.218130025e-19
0.0025
-3.231985556e-19
-1.390883909e-18
0.0025
-2.693645311e-19
-1.572007943e-19
0.0025
4.660434229e-19
-5.652052061e-19
0.0025
-6.726707841e-20
5.205433553e-20
0.0025
-2.123539499e-19
-5.747360111e-20
0.0025
-3.048275557e-19
-7.747202017e-20
0.0025
-2.673806153e-19
2.21905155e-19
0.0025
-3.855356363e-19
1.388024796e-19
0.0025
-5.143405241e-19
-4.175185835e-19
0.0025
-4.568823431e-19
-3.868729297e-19
0.0025
-6.769142262e-19
4.147748914e-19
0.0025
-5.701766404e-19
3.02123601e-19
0.0025
-4.860652036e-19
3.013530012e-20
0.0025
-3.202789528e-19
-4.469027897e-19
0.0025
-1.640041065e-19
-3.893670651e-19
0.0025
-6.467132293e-19
1.707256839e-19
0.0025
-4.196098619e-19
9.342717238e-20
0.0025
-3.972589152e-19
-1.003998451e-19
0.0025
-3.077436145e-19
6.870192351e-20
0.0025
-1.043654854e-19
-2.430554477e-19
0.0025
4.150828118e-21
-2.219679921e-19
0.0025
-5.42645086e-19
-8.064739335e-20
0.0025
-1.211075952e-19
-1.451380407e-19
0.0025
-1.333619251e-19
1.473894336e-19
0.0025
1.20786148e-19
5.163558274e-20
0.0025
-3.351442355e-19
6.525874377e-20
0.0025
-5.932673589e-21
-1.375370817e-19
0.0025
1.76025547e-19
-1.389181566e-19
0.0025
1.186763349e-20
-7.280059486e-19
0.0025
-2.736166378e-19
-4.86210461e-19
0.0025
5.854320326e-19
-8.266585398e-19
0.0025
-4.346601352e-19
-2.855645034e-19
0.0025
-9.175693499e-21
-3.552183299e-19
0.0025
2.714526506e-19
-1.665728107e-19
0.0025
3.874477063e-20
-7.222814108e-20
0.0025
-3.053791509e-19
-1.205732498e-19
0.0025
-4.135888944e-19
-4.311501151e-19
0.0025
-3.554495213e-19
-3.080801e-19
0.0025
-7.153032965e-19
-2.19973283e-20
0.0025
-6.111676344e-19
2.270638573e-19
0.0025
-4.34406444e-19
-9.011725165e-20
0.0025
-1.684934931e-19
-7.044248926e-19
0.0025
-6.008938903e-19
-4.76349482e-19
0.0025
-6.588123526e-19
3.811398767e-19
0.0025
-6.742281474e-19
2.38505263e-19
0.0025
-5.209044002e-19
6.326607367e-20
0.0025
-2.966342674e-19
-1.166278262e-19
0.0025
-4.303467038e-20
-3.587916111e-19
0.0025
-2.797278033e-19
-3.245766682e-19
0.0025
-7.568632176e-19
3.641372627e-19
0.0025
-4.776721534e-19
1.182407849e-19
0.0025
-3.463584551e-19
7.589751766e-24
0.0025
-1.815820474e-19
4.792954008e-20
0.0025
-4.089996516e-19
-1.010456373e-19
0.0025
4.425885732e-20
-2.996768058e-19
0.0025
4.209221455e-20
-3.44350123e-19
0.0025
-4.176692633e-19
2.428306265e-19
0.0025
-2.011622705e-19
-1.512139094e-19
0.0025
-8.469350521e-20
-8.237136371e-20
0.0025
-2.01084775e-19
-1.664908775e-19
0.0025
-2.096073192e-19
5.323113495e-20
0.0025
-1.310062543e-19
3.731031407e-20
0.0025
-3.417968437e-20
-2.748825579e-20
0.0025
1.812892394e-19
-1.770751249e-19
0.0025
1.009748297e-19
-2.053470185e-19
0.0025
2.226602522e-19
-2.699222141e-19
0.0025
3.299124614e-19
-5.384225082e-19
0.0025
-6.435335705e-19
-6.262052316e-19
0.0025
1.982612365e-19
-5.434124024e-19
0.0025
3.499640209e-19
-2.264541865e-19
0.0025
-3.911698996e-19
-2.545018823e-19
0.0025
-4.514781755e-19
-4.505965565e-19
0.0025
1.243466744e-20
-5.122734752e-19
0.0025
1.654842373e-19
-2.941568465e-19
0.0025
-4.379991796e-19
-3.066671867e-19
0.0025
-3.321036403e-19
3.401595017e-20
0.0025
-3.718608153e-19
-3.354769533e-19
0.0025
-2.026638136e-19
-6.730508957e-19
0.0025
-6.716879415e-19
-5.001844942e-19
0.0025
-6.009578886e-19
1.33280116e-19
0.0025
-5.945341674e-19
1.150027601e-20
0.0025
-4.378520827e-19
1.344582391e-19
0.0025
-1.447053503e-19
-3.400948868e-19
0.0025
-8.15109801e-20
-4.351011984e-19
0.0025
-6.567752151e-19
-7.410217702e-19
0.0025
-4.583668806e-19
5.83089408e-19
0.0025
-5.613640427e-19
3.836326135e-19
0.0025
-5.932899929e-19
5.129200462e-20
0.0025
-3.988844538e-19
-1.997626402e-19
0.0025
-3.384472114e-19
-2.454978163e-19
0.0025
-8.847308739e-20
-3.457357476e-19
0.0025
-1.537287179e-19
-4.740422626e-19
0.0025
-6.814656114e-19
4.972423961e-19
0.0025
-4.38327396e-19
2.202309024e-19
0.0025
-4.178181366e-19
4.462002545e-20
0.0025
-2.761391104e-19
-8.518010128e-20
0.0025
-4.713027069e-19
-6.949798583e-20
0.0025
-2.399431224e-19
-2.049637048e-19
0.0025
-9.903761756e-20
-1.942228702e-19
0.0025
-1.94606518e-20
-4.216532515e-19
0.0025
-2.600906989e-19
2.973549466e-19
0.0025
-6.170351904e-20
1.415737922e-20
0.0025
-1.323872351e-19
-3.954990782e-20
0.0025
-3.600923161e-19
-1.309357885e-19
0.0025
-1.545755142e-19
-2.074087219e-19
0.0025
-2.731904379e-19
-1.219983326e-19
0.0025
-2.260408105e-19
-1.763528443e-19
0.0025
-1.244884879e-21
8.112629035e-20
0.0025
2.3628848e-19
-3.191546468e-20
0.0025
-3.108165038e-19
-2.569253672e-19
0.0025
3.549723345e-19
-8.43706887e-20
0.0025
-8.07525e-20
-3.181971426e-19
0.0025
-1.746168288e-19
-7.610049527e-19
0.0025
2.02343763e-19
-3.474428994e-19
0.0025
1.211099552e-19
-5.183244504e-19
0.0025
-7.385732806e-19
-1.035038049e-19
0.0025
-1.74884063e-19
-5.999291367e-19
0.0025
3.816879494e-19
-3.746001806e-19
0.0025
3.346070983e-19
-1.259746575e-19
0.0025
-3.969455108e-19
-3.00665558e-19
0.0025
-3.163097973e-19
-2.639586856e-19
0.0025
-4.162766841e-19
-6.722869442e-19
0.0025
-1.400044986e-19
-4.571702452e-19
0.0025
-3.523227906e-19
-5.827194056e-19
0.0025
-4.52267873e-19
-4.347796368e-19
0.0025
-4.342834219e-19
-3.777798854e-19
0.0025
-2.879188012e-19
-2.221853074e-20
0.0025
-1.837370409e-19
-4.876803284e-19
0.0025
-3.029172859e-19
-4.8740745e-19
0.0025
-5.983781539e-19
-7.699475415e-19
0.0025
-1.779548269e-19
4.255768577e-19
0.0025
-2.826068132e-19
2.514658469e-19
0.0025
-5.319666008e-19
1.186630419e-20
0.0025
-5.996821863e-19
-4.032861994e-19
0.0025
-1.307417699e-20
-4.792277088e-19
0.0025
-2.133245298e-19
-2.327263757e-19
0.0025
-3.245461195e-19
-6.530083699e-19
0.0025
-4.45545305e-19
4.88426773e-19
0.0025
-3.861014767e-19
3.375503322e-19
0.0025
-6.139309149e-19
2.04096735e-19
0.0025
-5.250752894e-19
-5.733683142e-20
0.0025
-4.68010223e-19
-2.741410614e-19
0.0025
-1.863927464e-19
-3.166006381e-19
0.0025
-7.12813424e-20
-3.683727118e-19
0.0025
-3.908589452e-19
-6.723400502e-19
0.0025
-5.229808844e-19
6.162707407e-19
0.0025
-4.282761994e-19
2.504040827e-19
0.0025
-5.763473105e-19
2.67572983e-20
0.0025
-4.906643998e-19
-2.541995413e-19
0.0025
-3.46891921e-19
-1.490196455e-19
0.0025
-5.347821644e-19
-3.802984856e-19
0.0025
-3.641853847e-19
-4.156428794e-19
0.0025
2.461619887e-20
1.061323092e-19
0.0025
1.253023359e-19
-3.674842224e-19
0.0025
-2.935569744e-19
3.477188334e-19
0.0025
-7.356935813e-20
4.143016629e-20
0.0025
-2.011101243e-19
-7.869846432e-20
0.0025
-2.044389566e-19
1.421847768e-19
0.0025
-1.073727567e-19
-9.472411726e-20
0.0025
-1.025080417e-19
-1.089190867e-19
0.0025
-2.330541847e-19
-2.463418353e-19
0.0025
-3.665086576e-19
-3.091812541e-19
0.0025
-2.610500306e-19
-5.983895149e-20
0.0025
2.753208796e-19
2.42327774e-20
0.0025
-1.968484288e-19
5.395322922e-20
0.0025
8.568089864e-21
-1.311080338e-19
0.0025
-5.037927444e-19
-3.393947639e-19
0.0025
1.684894145e-19
-6.27053498e-19
0.0025
-6.833563344e-22
-5.045638568e-20
0.0025
2.626431899e-20
-5.099493713e-19
0.0025
-5.875095128e-19
-2.381217373e-19
0.0025
1.220254885e-19
-5.880874999e-19
0.0025
1.708683238e-19
-2.805115501e-19
0.0025
4.173072342e-19
-1.492080275e-19
0.0025
-4.366196425e-19
-5.784545416e-20
0.0025
-2.257222816e-19
-3.370667384e-19
0.0025
-7.015870379e-20
-7.035410222e-19
0.0025
4.135682915e-20
-1.616276261e-19
0.0025
-7.949996104e-20
-3.529242291e-19
0.0025
-3.796216508e-19
-3.999192234e-19
0.0025
-3.01648244e-19
-4.65169282e-19
0.0025
-4.329979582e-19
-3.846034847e-19
0.0025
-3.661418452e-19
-7.103223817e-19
0.0025
-3.215781307e-19
-3.990496837e-19
0.0025
5.428686842e-21
-3.968537916e-19
0.0025
-2.299278108e-19
1.304056201e-19
0.0025
-2.11963846e-19
-3.108052107e-19
0.0025
-3.608444741e-19
-2.88655776e-19
0.0025
-6.242849989e-19
-5.033540018e-19
0.0025
-6.758343509e-20
-6.333803941e-19
0.0025
-3.168526108e-19
-3.541341038e-19
0.0025
-5.439976858e-19
-5.246049175e-19
0.0025
-3.335958605e-19
4.735536838e-20
0.0025
-3.833949166e-19
-1.393469083e-20
0.0025
-5.050851928e-19
3.353334367e-19
0.0025
-7.471358077e-19
-2.038722152e-19
0.0025
-1.033438505e-19
-5.774690488e-19
0.0025
-9.836153045e-20
-6.513663605e-19
0.0025
-1.400540257e-19
-3.049449225e-19
0.0025
-3.2892143e-19
-4.513160923e-19
0.0025
-4.751857077e-19
5.482608119e-19
0.0025
-4.056265301e-19
3.859086609e-19
0.0025
-5.992628662e-19
3.525146163e-20
0.0025
-5.491239658e-19
-1.476534935e-19
0.0025
-5.090084225e-19
-1.709382562e-19
0.0025
-3.781446221e-19
-2.977636753e-19
0.0025
-3.397325963e-19
-5.451840068e-19
0.0025
-1.214475618e-19
-2.243242507e-19
0.0025
-5.108713453e-20
-7.477152312e-19
0.0025
-2.650461127e-19
7.845403583e-19
0.0025
-4.040516941e-19
2.819077588e-19
0.0025
-4.234143734e-19
7.521914693e-20
0.0025
-4.107916657e-19
8.30458304e-20
0.0025
-2.771649217e-19
-2.380091449e-19
0.0025
-3.820906673e-19
-2.240713938e-19
0.0025
-3.258507076e-19
-2.722536461e-19
0.0025
-3.591451629e-19
-4.614510656e-19
0.0025
-2.086802437e-19
-9.918164987e-20
0.0025
3.496197064e-19
-4.981621693e-19
0.0025
5.937284141e-20
5.056857789e-19
0.0025
-1.881584621e-19
1.132579617e-19
0.0025
-1.604826057e-19
-1.294252218e-20
0.0025
-2.945034124e-20
9.845129097e-21
0.0025
-2.189345991e-19
4.35491079e-20
0.0025
5.720186897e-20
-2.998670064e-20
0.0025
-1.83198834e-19
-2.467496116e-19
0.0025
-3.148031805e-19
-1.701231646e-19
0.0025
-2.57493812e-19
-8.583982408e-20
0.0025
-1.797127646e-19
-2.049155864e-19
0.0025
-5.757487677e-20
-1.227930234e-19
0.0025
2.54188498e-19
3.27154013e-19
0.0025
-1.332499648e-19
-7.39111211e-21
0.0025
-3.195531998e-19
-5.407539032e-20
0.0025
2.131569646e-19
-3.845134251e-19
0.0025
-1.61471466e-19
1.798240258e-19
0.0025
-1.097273396e-19
-1.814454105e-19
0.0025
-1.528879363e-19
-4.181956267e-19
0.0025
1.769989926e-19
-3.048113129e-19
0.0025
-3.386905966e-20
-1.369572656e-19
0.0025
2.892262025e-19
-2.354145637e-19
0.0025
-4.319321466e-19
-1.99143641e-19
0.0025
-4.485657256e-20
-5.03038909e-19
0.0025
3.292313906e-20
-4.923515258e-19
0.0025
6.275203462e-20
-9.425543349e-20
0.0025
2.877351952e-19
8.987046719e-20
0.0025
-2.47825368e-19
9.964489745e-20
0.0025
-3.129879058e-19
-4.376384259e-19
0.0025
-4.284437657e-19
-6.111370281e-19
0.0025
-2.317754795e-19
-6.828043948e-19
0.0025
-1.77833327e-19
-1.382045626e-19
0.0025
1.730747098e-19
-2.776054017e-19
0.0025
-3.51703004e-19
-8.617810294e-20
0.0025
-3.683622405e-19
-5.143662466e-19
0.0025
-3.070710586e-19
-4.509012853e-19
0.0025
-4.101020482e-19
-4.61606487e-19
0.0025
-1.637973803e-19
-5.842634007e-19
0.0025
-3.171091893e-19
-4.225921648e-19
0.0025
-1.094423781e-19
-4.973661802e-20
0.0025
-6.990831835e-19
-5.687621188e-19
0.0025
-3.866428141e-19
-2.035841361e-19
0.0025
-4.131566012e-19
-1.202166756e-20
0.0025
-6.847009712e-19
-3.6105423e-19
0.0025
8.339046001e-21
-5.723262631e-19
0.0025
-1.728275107e-19
-7.249313171e-19
0.0025
-3.827638213e-19
-3.729619514e-19
0.0025
-3.225203631e-19
-3.023910474e-19
0.0025
-5.72258379e-19
-1.023350225e-19
0.0025
-5.688421097e-19
1.253707258e-20
0.0025
-4.779658616e-19
-2.010431818e-19
0.0025
-5.28881476e-19
5.984040307e-20
0.0025
-3.62975043e-19
-4.172853595e-19
0.0025
-2.618593572e-19
-4.126736485e-19
0.0025
-1.402091419e-19
-4.945455715e-19
0.0025
-2.501749968e-19
-3.820355036e-19
0.0025
-1.905153016e-19
-4.989750992e-19
0.0025
-2.257368898e-19
6.710404676e-19
0.0025
-4.776399606e-19
2.52526447e-19
0.0025
-4.167880813e-19
2.315670446e-19
0.0025
-4.101978056e-19
-1.143119103e-20
0.0025
-5.600717619e-19
-3.225433472e-19
0.0025
-4.685635115e-19
-3.034918996e-19
0.0025
-4.682063179e-19
-2.216075795e-19
0.0025
-1.559699769e-19
-5.143449438e-19
0.0025
-3.432940403e-20
-2.529299275e-19
0.0025
2.237638804e-19
-7.770557999e-19
0.0025
9.43556726e-20
7.911430512e-19
0.0025
-2.993653595e-19
5.387473951e-19
0.0025
-1.382368491e-19
1.364955243e-19
0.0025
-2.173876253e-19
1.034925708e-21
0.0025
-3.763237464e-19
5.641576875e-21
0.0025
-1.644875585e-19
-7.778585614e-20
0.0025
-2.35578562e-19
-3.127539488e-19
0.0025
-3.684597391e-19
-4.292434823e-20
0.0025
-2.179257751e-19
-1.784006716e-19
0.0025
-3.032470914e-20
-3.797738977e-19
0.0025
2.139127315e-19
-4.891582623e-19
0.0025
4.735792945e-19
5.266802362e-19
0.0025
-1.045589431e-19
2.236141004e-19
0.0025
-1.434187566e-19
2.946196319e-20
0.0025
3.264134531e-20
1.455822011e-19
0.0025
-1.902923854e-19
2.13412051e-20
0.0025
-5.558096952e-20
-1.971461042e-19
0.0025
-1.316346014e-19
-9.259124525e-20
0.0025
-7.025792403e-20
-1.335376286e-19
0.0025
-8.609756483e-20
-4.2855023e-20
0.0025
-3.466373909e-19
-1.844700339e-19
0.0025
-1.193296868e-19
-3.2407579e-20
0.0025
1.337982698e-19
-3.512105978e-19
0.0025
3.899273392e-19
3.867749823e-19
0.0025
7.885930938e-20
1.076540675e-19
0.0025
3.670356961e-20
2.249861162e-19
0.0025
7.131785238e-20
-4.427167771e-21
0.0025
-1.037964512e-19
2.299209877e-19
0.0025
-8.949020867e-20
-1.961364219e-19
0.0025
1.391179051e-19
-3.053044448e-19
0.0025
3.000345336e-19
-3.485829965e-22
0.0025
-6.283749669e-20
1.592823832e-19
0.0025
1.363142479e-19
-9.377160566e-20
0.0025
-2.212120008e-19
-3.407137953e-19
0.0025
2.497754501e-19
-4.715315826e-19
0.0025
2.580869522e-20
-2.056864058e-19
0.0025
-3.362534254e-20
-7.321340634e-20
0.0025
3.920145361e-19
-1.061091886e-20
0.0025
-3.08294622e-19
2.16223686e-19
0.0025
-1.703032987e-19
-4.213990981e-19
0.0025
-2.141754689e-19
-5.248401765e-19
0.0025
-1.076599078e-19
-3.21859803e-19
0.0025
1.022105859e-19
-1.080469141e-19
0.0025
1.70746963e-19
3.510933029e-20
0.0025
-3.356600432e-19
-8.141438681e-20
0.0025
-3.813002964e-19
-1.716919029e-19
0.0025
-3.707171862e-19
-4.964681553e-19
0.0025
-1.633442008e-19
-3.580722454e-19
0.0025
-1.042684038e-20
-3.783172415e-19
0.0025
-1.997970578e-19
-4.17069023e-19
0.0025
3.188351018e-19
-1.585453719e-20
0.0025
-7.9448621e-19
-4.932513383e-19
0.0025
-3.810990586e-19
-1.561974649e-19
0.0025
-2.289692819e-19
-3.987701219e-19
0.0025
-1.989944788e-19
-3.699677397e-19
0.0025
-2.74227836e-20
-4.283360646e-19
0.0025
-3.047934834e-19
-4.099776822e-19
0.0025
-2.478545148e-19
-3.629592513e-19
0.0025
-2.48322799e-19
-3.077628411e-19
0.0025
-6.253255243e-19
-9.857226218e-20
0.0025
-7.464385627e-19
-5.559564944e-19
0.0025
-4.22314448e-19
-2.795809035e-19
0.0025
-3.247267268e-19
1.236784555e-19
0.0025
-1.621337438e-19
-4.887821962e-19
0.0025
-1.949946943e-19
-4.276706751e-19
0.0025
6.740254072e-20
-1.935209942e-19
0.0025
-2.980418407e-19
-3.889741452e-19
0.0025
-3.735945101e-19
-4.394093501e-19
0.0025
-3.534259333e-19
1.166479155e-20
0.0025
-5.152264712e-19
-1.204409242e-19
0.0025
-4.97075852e-19
5.58138472e-20
0.0025
-3.937065291e-19
-1.565968939e-19
0.0025
-7.38132341e-19
-4.716381011e-19
0.0025
-3.680255268e-19
-4.559284737e-19
0.0025
-2.975336924e-19
-4.403895804e-19
0.0025
5.389141963e-20
-2.190931457e-19
0.0025
-7.086211813e-20
-3.594689908e-19
0.0025
-1.32747665e-19
-4.56273327e-19
0.0025
6.428779605e-20
6.833219799e-19
0.0025
-3.576257077e-19
6.010840068e-19
0.0025
-1.813135296e-19
1.358801154e-19
0.0025
-3.305894124e-19
-9.09582556e-20
0.0025
-4.050598388e-19
3.156095728e-20
0.0025
-4.761286295e-19
-2.684875993e-19
0.0025
-4.215987816e-19
-3.991395835e-19
0.0025
-3.22004073e-19
-1.524125608e-19
0.0025
-1.368279124e-19
-2.996516134e-19
0.0025
1.271717403e-19
-3.257513254e-19
0.0025
4.30880843e-19
-4.983647977e-19
0.0025
3.715652648e-19
6.953603349e-19
0.0025
-2.032931888e-20
7.443512088e-19
0.0025
-1.019903764e-19
2.198592536e-19
0.0025
3.604701489e-20
2.233154178e-19
0.0025
-3.120829175e-19
-2.401625019e-20
0.0025
-1.847505752e-19
-1.283000391e-19
0.0025
-2.586250093e-19
-1.080142901e-19
0.0025
-1.069742011e-19
-1.30336965e-19
0.0025
-1.956943894e-19
-3.406797e-20
0.0025
-3.493632262e-19
-3.775981169e-19
0.0025
1.141467701e-19
-1.54592277e-19
0.0025
5.082524398e-19
-3.863276978e-19
0.0025
2.713341612e-19
2.472010742e-19
0.0025
-1.094745331e-20
2.159626159e-19
0.0025
7.623016589e-20
2.446476643e-19
0.0025
-6.74439749e-20
-7.224265525e-20
0.0025
5.96309546e-20
1.866875497e-19
0.0025
-1.762514019e-19
-4.285071867e-20
0.0025
-7.544608441e-20
-4.326873016e-21
0.0025
-5.01545579e-21
-1.0543315e-19
0.0025
1.472330413e-19
1.01240935e-19
0.0025
-1.696540891e-19
3.137955204e-20
0.0025
-1.822063853e-20
-1.092672929e-19
0.0025
-2.209145556e-19
-5.989396985e-20
0.0025
3.187108058e-19
-2.989908355e-19
0.0025
5.444144574e-19
9.653471604e-19
0.0025
2.536036817e-19
1.645996271e-19
0.0025
2.365135312e-19
3.360046409e-19
0.0025
7.158917894e-20
4.196513425e-19
0.0025
1.065990216e-19
2.387359764e-19
0.0025
4.004379502e-19
2.802772352e-19
0.0025
3.722006373e-19
1.327322205e-19
0.0025
1.956092348e-19
1.210212e-19
0.0025
-8.976127684e-21
1.584099791e-19
0.0025
1.176730053e-19
-2.081118844e-19
0.0025
-2.059763625e-20
-1.080023595e-19
0.0025
4.311849712e-19
2.717242817e-20
0.0025
2.536857245e-19
1.380569446e-19
0.0025
6.652725647e-20
-8.320731851e-20
0.0025
-2.150061292e-20
-3.976502859e-19
0.0025
-2.532467517e-19
5.488296522e-21
0.0025
2.089539894e-19
-2.999615071e-19
0.0025
7.688794655e-20
-3.699802726e-19
0.0025
-1.225288928e-19
-2.413231596e-20
0.0025
9.370311886e-20
-3.204565652e-19
0.0025
3.852911478e-19
-4.107900011e-20
0.0025
-2.778815358e-19
-2.395285447e-19
0.0025
-2.893934784e-19
-9.735717858e-20
0.0025
-3.65933389e-19
-2.987697509e-19
0.0025
1.004986942e-19
-2.321591881e-20
0.0025
2.31890612e-19
-2.138533873e-19
0.0025
3.991567227e-20
-2.898600174e-19
0.0025
1.161328953e-19
2.490018459e-20
0.0025
-6.443682286e-19
5.251834467e-20
0.0025
-2.552117802e-19
-1.433204954e-19
0.0025
-1.837680542e-19
-3.552162189e-19
0.0025
3.488286413e-20
-2.456340136e-19
0.0025
-3.634531996e-20
-1.94076374e-19
0.0025
-8.270184064e-20
-2.007003559e-19
0.0025
-1.013285732e-21
-5.625640322e-19
0.0025
-2.333936491e-19
-2.999775085e-19
0.0025
-4.704646762e-19
2.39055108e-19
0.0025
-5.210323497e-19
-3.899229587e-19
0.0025
-1.799058309e-19
-1.29779091e-19
0.0025
-1.022899838e-20
2.374876105e-20
0.0025
-8.230139841e-21
-3.25884147e-19
0.0025
2.422811995e-20
-3.986373973e-19
0.0025
-3.652004612e-20
-1.109479632e-19
0.0025
-3.833290189e-19
-5.169529017e-19
0.0025
-1.62034813e-19
-6.04058922e-19
0.0025
-1.187141638e-19
-1.60302178e-19
0.0025
-4.291157482e-19
-9.079650657e-20
0.0025
-5.21227888e-19
-2.016996028e-19
0.0025
-3.191262265e-19
-2.995950897e-19
0.0025
-4.793172909e-19
-3.042266565e-19
0.0025
-2.197370986e-19
-3.586895588e-19
0.0025
3.974339663e-20
-4.72859747e-19
0.0025
3.735031637e-20
-1.503413484e-19
0.0025
-2.169469147e-19
-2.673230106e-19
0.0025
-4.050838764e-19
-3.141427557e-19
0.0025
-1.583041435e-21
6.178537632e-20
0.0025
-3.584455926e-19
1.233143116e-19
0.0025
-4.118909164e-19
1.479236347e-20
0.0025
-3.793090819e-19
-1.719317157e-19
0.0025
-5.436468305e-19
-9.009312749e-20
0.0025
-5.032659456e-19
-6.001125222e-19
0.0025
-3.05996083e-19
-3.838795398e-19
0.0025
-8.492117477e-20
-3.741342693e-19
0.0025
-2.532751863e-19
-3.798026723e-19
0.0025
-6.750233266e-20
-2.705596879e-19
0.0025
-5.709405901e-20
-4.029130745e-19
0.0025
-4.448011701e-21
4.382415734e-19
0.0025
-3.565445341e-20
7.583922523e-19
0.0025
-1.660679727e-19
2.476405203e-19
0.0025
-6.208957035e-20
1.06337308e-19
0.0025
-3.202617047e-19
-1.076474134e-19
0.0025
-3.975312014e-19
9.844220531e-21
0.0025
-2.542332457e-19
-1.130765387e-19
0.0025
-2.271134189e-19
-3.8052306e-19
0.0025
-3.066361613e-19
-1.520654234e-19
0.0025
-1.713214944e-19
-3.805553709e-19
0.0025
3.122361079e-19
-1.632817419e-19
0.0025
6.266955264e-19
-2.201300167e-19
0.0025
3.117473093e-19
7.567554706e-19
0.0025
2.035800297e-19
6.130072836e-19
0.0025
7.417268869e-20
5.759099099e-19
0.0025
4.14125953e-20
-5.232743828e-20
0.0025
2.682658702e-21
1.954691199e-19
0.0025
-2.434831673e-19
-5.83011713e-22
0.0025
-2.361550783e-19
1.979383088e-20
0.0025
-4.81616667e-20
-7.45977112e-20
0.0025
-7.783012918e-21
1.086494614e-19
0.0025
-2.599927037e-19
2.777991621e-20
0.0025
1.331078966e-19
-2.207901837e-19
0.0025
1.637070383e-19
-2.47161266e-19
0.0025
6.347900271e-19
-3.311311173e-19
0.0025
-1.272923973e-20
1.923378225e-19
0.0025
-1.41148821e-19
1.588277216e-19
0.0025
4.019986586e-19
9.528112945e-20
0.0025
-9.295103309e-20
1.404993151e-19
0.0025
5.529156462e-20
-2.770089019e-20
0.0025
-2.855107481e-19
-1.222386263e-19
0.0025
5.099748584e-20
-4.860170839e-20
0.0025
-7.57010057e-20
3.22857193e-19
0.0025
1.563128632e-19
-2.803066833e-20
0.0025
1.053325418e-19
1.325102911e-19
0.0025
-2.919205334e-20
2.245423943e-19
0.0025
-1.546409288e-20
3.828287118e-20
0.0025
2.125091256e-19
-2.579022618e-19
0.0025
4.376464601e-19
7.123697083e-20
0.0025
2.424885297e-19
1.101899356e-18
0.0025
3.635227808e-19
4.783622573e-19
0.0025
2.409061391e-19
6.743268263e-19
0.0025
2.242049192e-19
6.159614473e-19
0.0025
3.171862763e-19
2.238463257e-19
0.0025
6.10708638e-19
6.619472579e-19
0.0025
3.251456518e-19
2.538926841e-19
0.0025
1.169226193e-19
4.362279757e-19
0.0025
3.332130817e-19
2.406193063e-19
0.0025
9.831201422e-20
1.055757344e-19
0.0025
3.681091881e-19
1.452113973e-19
0.0025
3.885223071e-19
3.74004005e-19
0.0025
2.251598696e-19
1.568361259e-20
0.0025
1.565680477e-19
-3.927170245e-20
0.0025
1.010015176e-19
-1.514069448e-19
0.0025
1.831150568e-19
-9.584972686e-21
0.0025
2.218232107e-19
1.016377061e-19
0.0025
3.613395706e-19
-1.239589282e-20
0.0025
1.710484927e-19
2.577649894e-20
0.0025
-1.275025558e-19
-4.439538473e-19
0.0025
2.461271999e-19
-6.390242796e-19
0.0025
-2.293148477e-19
-2.095100764e-19
0.0025
-7.675409628e-20
-2.954676299e-19
0.0025
-1.473554599e-19
-2.781382385e-19
0.0025
1.542540995e-19
9.2151008e-20
0.0025
9.084300548e-20
-1.232120845e-19
0.0025
2.391947355e-19
-4.951309393e-19
0.0025
-9.011527624e-20
-1.804255371e-20
0.0025
-2.435730719e-19
3.451002165e-19
0.0025
-2.105617353e-19
-3.408519362e-19
0.0025
-2.45379966e-19
-3.448317209e-19
0.0025
1.631069194e-19
1.087268274e-19
0.0025
1.586750431e-20
-7.226568938e-20
0.0025
1.981883668e-19
-1.311424506e-19
0.0025
-8.706542781e-20
-3.758945704e-19
0.0025
-9.409302199e-20
-2.120803546e-19
0.0025
-4.940804333e-19
3.156153739e-19
0.0025
-4.156911642e-19
3.123294354e-20
0.0025
-6.458647651e-20
-5.417947588e-20
0.0025
-1.009747927e-20
-1.697398973e-19
0.0025
-9.050035219e-20
-2.908303134e-19
0.0025
7.974422638e-20
-3.848588178e-19
0.0025
-1.315540148e-19
-9.919605788e-20
0.0025
-2.28541897e-19
-7.332664243e-19
0.0025
4.123800482e-20
-5.718088887e-19
0.0025
-7.744681221e-20
-1.258226985e-19
0.0025
-3.779721557e-19
3.803181248e-20
0.0025
-4.929709769e-19
-2.369369403e-19
0.0025
-2.53994726e-19
-2.784765308e-19
0.0025
-1.434048184e-19
-1.047321902e-19
0.0025
3.167042176e-20
-1.091698154e-19
0.0025
6.511005808e-20
-5.324168019e-19
0.0025
-1.458965826e-19
-4.773090832e-19
0.0025
-3.857235311e-19
-5.407238177e-19
0.0025
-5.444614411e-19
-4.441076654e-19
0.0025
1.314894194e-19
-1.185979288e-19
0.0025
-9.954968963e-20
-1.381134893e-20
0.0025
-4.488961562e-19
-5.099615102e-20
0.0025
-2.86689715e-19
-7.294610145e-20
0.0025
-4.249692484e-19
-3.03034302e-19
0.0025
-3.367455472e-19
-5.3777583e-19
0.0025
-1.402971471e-19
-1.738817101e-19
0.0025
5.599838306e-20
-4.318193492e-19
0.0025
-2.316473829e-19
-5.457388079e-19
0.0025
-4.098726576e-19
-1.975241457e-19
0.0025
-1.892535e-19
-2.992523303e-19
0.0025
-2.384950139e-19
-2.090654987e-20
0.0025
-5.537341456e-20
1.293740597e-19
0.0025
-2.13329979e-19
1.595025588e-19
0.0025
-2.998796161e-19
-1.838116301e-19
0.0025
-4.044467644e-19
-2.124533624e-19
0.0025
-5.902794988e-19
-4.963560006e-20
0.0025
-2.038763405e-19
-3.357215253e-19
0.0025
-2.270305184e-19
-4.543829691e-19
0.0025
-2.702074572e-19
-2.021785079e-19
0.0025
-6.607733262e-20
-2.812930666e-19
0.0025
-1.247084655e-21
-2.568458557e-19
0.0025
1.669887426e-19
-1.87773852e-19
0.0025
-2.457481045e-19
6.666879515e-19
0.0025
1.468937172e-19
6.149117669e-19
0.0025
-8.248778005e-20
4.384407291e-19
0.0025
5.245171242e-20
-1.372408994e-19
0.0025
-2.545924901e-19
1.066628835e-19
0.0025
-3.120388921e-19
3.812298401e-20
0.0025
-1.509151038e-19
-2.742694157e-20
0.0025
-1.656090081e-19
-9.149665412e-20
0.0025
-1.623295413e-19
-2.26825464e-19
0.0025
-3.059249388e-19
3.684164748e-20
0.0025
6.625946495e-20
-3.164638288e-19
0.0025
5.105226519e-19
-2.59525582e-19
0.0025
4.961843785e-19
-4.631325926e-19
0.0025
1.846233766e-19
5.511268634e-19
0.0025
-3.28201538e-20
5.279904718e-19
0.0025
3.522411453e-19
3.906025596e-19
0.0025
-1.723340073e-19
9.796191648e-20
0.0025
1.050783364e-19
-6.750537747e-21
0.0025
-3.063868303e-19
-8.818902129e-20
0.0025
-9.973677877e-20
-1.245951978e-20
0.0025
-2.346349758e-19
2.626493331e-19
0.0025
5.720683522e-20
1.217516315e-20
0.0025
4.699014997e-21
5.807785541e-20
0.0025
-4.011824106e-21
1.807243571e-19
0.0025
1.576225121e-19
-5.428566506e-20
0.0025
4.847115174e-19
-3.876885315e-19
0.0025
5.374342881e-19
-5.395482027e-20
0.0025
-1.783253344e-19
-6.92391484e-20
0.0025
-1.997729919e-19
4.062930277e-19
0.0025
8.4277715e-20
9.530457083e-20
0.0025
1.602310777e-19
-2.597293248e-20
0.0025
-1.282248519e-20
-9.990256578e-20
0.0025
-2.116107469e-19
5.578692609e-20
0.0025
4.774357242e-20
-2.76737989e-19
0.0025
-2.023302664e-19
-1.098757897e-19
0.0025
-2.905910786e-19
9.56690141e-20
0.0025
1.172171223e-19
6.480605507e-20
0.0025
-2.456555876e-20
3.161179291e-19
0.0025
1.208258555e-19
1.70830638e-19
0.0025
3.071593291e-19
-1.680724587e-19
0.0025
4.249181189e-20
-3.319031061e-19
0.0025
9.487195978e-20
1.73741418e-19
0.0025
-5.30854028e-20
6.532044286e-19
0.0025
2.675171135e-19
6.475299953e-19
0.0025
-5.617465031e-20
8.471509356e-19
0.0025
2.659350245e-19
9.484662323e-19
0.0025
3.030536976e-19
3.752826101e-19
0.0025
3.890669026e-19
4.708285639e-19
0.0025
2.212047706e-19
2.099144059e-19
0.0025
1.070500623e-19
4.899525335e-19
0.0025
5.060378564e-19
2.406359536e-19
0.0025
1.341864637e-19
3.469769613e-19
0.0025
4.887892648e-19
3.524541196e-19
0.0025
3.061603596e-19
4.80953383e-19
0.0025
9.091842037e-20
1.617492542e-19
0.0025
3.214995391e-19
2.090498542e-19
0.0025
2.009272161e-19
-2.523035847e-20
0.0025
2.736846969e-19
-5.826805791e-20
0.0025
2.057388635e-19
3.220990333e-19
0.0025
2.206328004e-19
1.335895941e-19
0.0025
4.035192094e-19
-1.206183988e-19
0.0025
-2.881398929e-20
-1.97429637e-19
0.0025
2.069720141e-19
-3.596284312e-19
0.0025
3.970254213e-19
-4.091345987e-21
0.0025
-2.293348229e-20
-9.513353206e-20
0.0025
1.017530375e-19
-1.207630581e-19
0.0025
1.778270826e-19
-1.552357924e-19
0.0025
-1.037626075e-19
-1.966951316e-19
0.0025
1.596324728e-19
-5.742653422e-19
0.0025
3.713211726e-20
-5.220527759e-19
0.0025
-2.09774801e-19
1.199594125e-19
0.0025
-1.587606225e-19
-3.178296309e-19
0.0025
-2.220957912e-19
-4.344814475e-19
0.0025
2.222799e-19
1.781304613e-19
0.0025
3.708149561e-20
1.46995893e-20
0.0025
1.865361042e-19
-2.821658363e-19
0.0025
8.761650018e-20
-1.818603515e-19
0.0025
1.886805635e-19
-3.869342216e-20
0.0025
-3.669707732e-19
5.334102762e-20
0.0025
-1.857696166e-19
1.902766682e-19
0.0025
5.607129521e-20
-6.390895836e-20
0.0025
-2.234475258e-20
-2.619796383e-19
0.0025
-3.215410699e-19
-1.565279416e-19
0.0025
6.834197057e-20
-4.537313633e-19
0.0025
2.244854775e-21
3.92522725e-20
0.0025
-5.664854979e-20