/*--------------------------------*- C++ -*----------------------------------*\
| =========                 |                                                 |
| \\      /  F ield         | OpenFOAM: The Open Source CFD Toolbox           |
|  \\    /   O peration     | Version:  2212                                  |
|   \\  /    A nd           | Website:  www.openfoam.com                      |
|    \\/     M anipulation  |                                                 |
\*---------------------------------------------------------------------------*/
FoamFile
{
    version     2.0;
    format      ascii;
    arch        "LSB;label=32;scalar=64";
    class       volVectorField;
    location    "0.2";
    object      U;
}
// * * * * * * * * * * * * * * * * * * * * * * * * * * * * * * * * * * * * * //

dimensions      [0 1 -1 0 0 0 0];

internalField   nonuniform List<vector> 
42875
(
(1 3.921960941e-17 -9.705665934e-18)
(1 -1.968781001e-16 -1.183535852e-16)
(1 -6.009156729e-17 -1.193962586e-16)
(1 -9.538811214e-17 -1.19629478e-16)
(1 -4.213290903e-16 -2.583174966e-16)
(1 -4.513973772e-16 -2.062143023e-16)
(1 -2.810002032e-16 -1.176239245e-16)
(1 -1.557422309e-16 -5.413864681e-17)
(1 -1.087850703e-16 -1.345522108e-16)
(1 1.056832018e-17 -1.579892698e-16)
(1 -2.852476168e-16 -1.42095582e-16)
(1 -6.276612555e-16 -9.097418618e-17)
(1 -2.78928525e-16 -2.422152226e-16)
(1 -5.584880963e-16 -2.242368907e-17)
(1 -3.33297963e-16 -2.422266489e-16)
(1 -3.385896691e-16 -2.705805754e-16)
(1 -1.657602518e-16 -1.900676947e-17)
(1 -1.115005065e-16 -1.39913354e-16)
(1 -1.020633112e-16 -1.13128218e-16)
(1 -1.523418505e-17 -1.043561305e-16)
(1 -1.98385249e-16 -2.172438315e-16)
(1 -4.553710454e-16 -1.980901668e-17)
(1 -1.586840311e-16 -1.353223482e-16)
(1 -5.346210076e-16 1.71605048e-17)
(1 -3.811952086e-16 -1.482832639e-16)
(1 -3.186155658e-16 -1.763817151e-16)
(1 -3.642970657e-16 1.463309133e-16)
(1 -1.870679169e-16 -7.859695589e-17)
(1 -3.745421319e-16 -1.278408447e-16)
(1 -1.443741846e-16 -4.269853346e-16)
(1 -1.006963811e-16 -5.094142953e-18)
(1 -1.37714199e-16 -1.265020348e-16)
(1 -2.089593175e-16 -1.630856471e-16)
(1 -1.149861862e-16 9.455532571e-18)
(1 1.606176507e-16 -8.175695942e-17)
(1 -1.553831934e-16 -4.522629734e-16)
(1 -1.839440647e-16 5.551571682e-17)
(1 8.03075603e-17 -8.00526286e-17)
(1 -2.83163384e-16 1.252810541e-16)
(1 -1.868409827e-16 -4.73639688e-17)
(1 -2.012186291e-16 -2.205059669e-17)
(1 -3.176964074e-16 1.523239724e-16)
(1 -2.742179719e-16 5.322631023e-17)
(1 -3.461789844e-16 -7.29806191e-17)
(1 -1.818836172e-16 -3.327213176e-16)
(1 -1.668379555e-16 1.258155486e-16)
(1 -2.119622511e-16 7.188184783e-17)
(1 -2.092143683e-16 -1.108643401e-16)
(1 -1.516474538e-16 -1.471963644e-16)
(1 -3.743447363e-17 -1.323255177e-16)
(1 3.23155898e-17 1.046541546e-16)
(1 3.935492056e-17 -2.371804652e-17)
(1 -6.95783804e-17 -7.157787619e-17)
(1 -6.695960738e-17 5.048682491e-18)
(1 3.670977675e-17 8.197334289e-18)
(1 5.660444355e-17 -2.955049721e-17)
(1 -1.74697925e-16 -6.158422525e-16)
(1 -1.229041488e-16 -6.367955709e-17)
(1 2.529537606e-16 -4.536476944e-16)
(1 -5.296586164e-17 4.854360865e-17)
(1 4.527748113e-17 3.368306772e-17)
(1 -5.273970212e-17 8.335567851e-17)
(1 -1.28164544e-17 1.465050282e-16)
(1 -1.365985383e-16 8.336636981e-17)
(1 -2.59886914e-16 -6.530384692e-17)
(1 -1.926313632e-16 -1.698726939e-16)
(1 -2.363874838e-16 1.437964043e-16)
(1 -2.177051944e-16 1.403411204e-16)
(1 -2.196173817e-16 3.837703008e-17)
(1 -1.854199398e-16 -2.224140692e-16)
(1 -1.859229423e-16 -1.880274835e-16)
(1 -3.003872451e-16 1.022257622e-16)
(1 -1.855083529e-16 1.105881659e-16)
(1 -1.559059931e-16 -4.159910482e-17)
(1 -9.859651708e-17 2.553229457e-17)
(1 5.959433288e-17 -6.452354846e-17)
(1 -4.284578049e-17 -6.571596296e-17)
(1 -2.234214594e-16 -1.608252622e-17)
(1 9.256491751e-18 -4.39856524e-17)
(1 -4.089363452e-17 1.640239882e-16)
(1 1.919108509e-16 4.478663905e-17)
(1 -1.707103047e-16 9.611467912e-17)
(1 4.188111787e-17 -6.956997907e-17)
(1 1.128308695e-16 -1.547429661e-17)
(1 -5.256575725e-17 -3.574748031e-16)
(1 -1.044400988e-16 -1.765536811e-16)
(1 2.676949438e-16 -5.746363327e-16)
(1 -9.643448841e-17 -9.439876078e-17)
(1 2.018858816e-16 -1.774583994e-16)
(1 1.235431313e-16 -1.151001928e-16)
(1 4.940154702e-17 -2.556748267e-17)
(1 -1.635865572e-16 -3.7147885e-17)
(1 -1.32698162e-16 -6.758659982e-17)
(1 -9.500595484e-17 -8.178920991e-17)
(1 -1.815770171e-16 9.446425212e-19)
(1 -1.762467145e-16 5.772541449e-17)
(1 -1.946367778e-16 3.083776498e-17)
(1 -1.316355207e-16 -3.208715923e-16)
(1 -3.686864806e-16 -9.472029349e-17)
(1 -3.757139699e-16 1.240089061e-16)
(1 -2.923424136e-16 1.257407377e-16)
(1 -2.161913671e-16 1.514197986e-16)
(1 -5.658583853e-17 -7.667568249e-18)
(1 -3.977194479e-18 -2.216543222e-16)
(1 -2.224395715e-16 -1.115754926e-16)
(1 -3.171095555e-16 1.722619481e-16)
(1 -2.310297991e-16 7.205974924e-17)
(1 -1.602894541e-16 -9.105344282e-18)
(1 -1.441775777e-16 -4.193684101e-17)
(1 -9.757236979e-17 3.8477482e-17)
(1 1.587765216e-17 -7.03030253e-17)
(1 -4.354682398e-17 -1.203362623e-16)
(1 -3.169493001e-16 1.711590508e-16)
(1 -1.737574237e-16 -5.208016401e-17)
(1 -1.116727263e-17 -1.411831922e-17)
(1 7.5856863e-17 4.263022048e-17)
(1 -2.734476534e-17 7.591209066e-17)
(1 1.067476072e-17 4.479331916e-17)
(1 1.084336289e-16 -3.726231511e-17)
(1 4.76197953e-17 -1.320976645e-16)
(1 -6.021984693e-17 -1.179831464e-16)
(1 1.225583609e-16 -1.029492849e-16)
(1 1.80775087e-16 -2.478377602e-16)
(1 -1.229191042e-16 -2.780295052e-16)
(1 1.922352973e-16 -2.77869369e-16)
(1 1.054087686e-16 -1.656273487e-16)
(1 -2.758848814e-16 -1.453093264e-16)
(1 -1.81631768e-16 -1.917460546e-16)
(1 1.512309091e-16 -2.129643432e-16)
(1 1.815387802e-16 -3.587242481e-17)
(1 2.01916097e-17 -9.480668064e-17)
(1 -9.343630482e-17 -8.028973564e-17)
(1 -1.626938267e-16 -9.467689818e-17)
(1 -1.381923341e-16 -2.52388612e-16)
(1 -2.823012519e-16 -4.57894471e-17)
(1 -3.729592464e-16 2.048098777e-17)
(1 -3.417856716e-16 -5.500661376e-17)
(1 -1.768363902e-16 1.225332966e-16)
(1 4.920829932e-17 -7.114262827e-17)
(1 -1.469680734e-16 -2.533163136e-16)
(1 -3.557274014e-16 -2.209024794e-16)
(1 -2.173414704e-16 2.789189741e-16)
(1 -2.607309934e-16 1.5780966e-16)
(1 -2.169927274e-16 6.142957831e-17)
(1 -1.799404616e-16 -4.07388486e-17)
(1 -3.37424056e-17 -1.019121711e-16)
(1 -7.132376935e-17 -8.406955663e-17)
(1 -1.632583259e-16 -1.540626607e-16)
(1 -2.188019043e-16 2.517550081e-16)
(1 -1.743568154e-16 2.551622672e-16)
(1 -1.83912101e-16 1.033340323e-16)
(1 -6.901042351e-17 -4.197040111e-17)
(1 -2.214276364e-16 1.362492693e-17)
(1 -2.707370128e-17 -1.524734119e-16)
(1 -7.46148971e-18 -1.804093511e-16)
(1 -1.189464293e-16 -2.485140629e-16)
(1 -9.98928936e-17 2.336186539e-16)
(1 -4.957153879e-17 8.751923351e-17)
(1 -5.156209666e-17 -3.500267079e-17)
(1 -2.024456778e-16 -3.296524846e-17)
(1 -1.121089794e-16 -1.969170325e-16)
(1 -8.54882094e-17 -2.352829914e-17)
(1 -1.15131345e-16 4.689675541e-18)
(1 8.666338414e-17 -1.38613801e-18)
(1 2.857210455e-16 -9.792070858e-17)
(1 -1.690995208e-16 -6.590666131e-17)
(1 1.584251128e-16 -8.424293826e-17)
(1 -9.534573137e-18 -5.480464571e-17)
(1 8.927389489e-17 -3.950822586e-16)
(1 5.928942266e-17 -1.328336683e-16)
(1 1.032586684e-16 -2.302574143e-16)
(1 -4.202781583e-16 -6.413516624e-17)
(1 -1.223966808e-17 -2.740398952e-16)
(1 1.801888345e-16 -2.046039005e-16)
(1 1.946032444e-16 -1.159279028e-16)
(1 -4.636147101e-17 -1.088283821e-16)
(1 -2.233662494e-16 -1.377586695e-16)
(1 -7.289782731e-17 -2.291715309e-16)
(1 7.13963191e-17 -1.727595463e-16)
(1 -4.867400187e-17 -1.741942514e-16)
(1 -3.814480831e-16 -2.013609099e-16)
(1 -1.327798108e-16 -2.074476979e-16)
(1 -1.346114889e-16 6.32471153e-17)
(1 -3.64120874e-17 -1.965936575e-16)
(1 -2.49233286e-16 -2.240441397e-16)
(1 -2.683656178e-16 -2.641276712e-16)
(1 -7.470967303e-17 2.606354188e-16)
(1 -1.380197724e-16 7.35575289e-17)
(1 -1.743963339e-16 4.074714535e-17)
(1 -1.665665732e-16 -1.014920191e-17)
(1 1.027811813e-16 -1.687864858e-16)
(1 -1.906224214e-16 -6.712679035e-17)
(1 -1.973225763e-16 -3.659134027e-16)
(1 -1.074101181e-16 2.319754695e-16)
(1 -1.48627777e-16 2.518071009e-16)
(1 -2.657343873e-16 1.862117914e-16)
(1 -2.087165118e-16 9.719379173e-18)
(1 -2.184747465e-16 -1.576752113e-16)
(1 1.006495867e-18 -7.12472822e-17)
(1 2.286021408e-17 -1.393413568e-16)
(1 -2.138212558e-16 -2.251939282e-16)
(1 -2.700759842e-16 2.763814418e-16)
(1 -1.574831377e-16 1.76301867e-16)
(1 -2.445475859e-16 5.567821496e-17)
(1 -1.516841609e-16 -4.908325045e-17)
(1 -1.76630526e-16 -2.308751968e-17)
(1 -1.964582524e-16 -9.377727195e-17)
(1 -1.121717279e-16 -1.131970014e-17)
(1 1.392692672e-16 -6.311053556e-17)
(1 1.176001076e-16 -1.754785317e-16)
(1 -1.558613267e-16 2.478488704e-16)
(1 2.730718037e-17 8.068862263e-17)
(1 -1.522281675e-16 -3.002156521e-17)
(1 -2.026149986e-16 2.341619335e-17)
(1 -3.579603816e-17 -1.631376915e-16)
(1 -1.878223293e-16 -6.765829171e-17)
(1 -1.302969314e-16 -1.567409508e-16)
(1 -1.035018495e-16 -2.30422335e-16)
(1 8.937734855e-18 1.018678764e-16)
(1 2.590062184e-16 6.635435864e-17)
(1 -4.980761761e-17 9.808694099e-17)
(1 -3.294971009e-17 -1.252828802e-16)
(1 -2.259708918e-16 -7.923341618e-17)
(1 2.245672453e-16 -3.560117467e-16)
(1 -5.389996052e-17 5.859292335e-17)
(1 6.157137082e-17 -1.863433217e-16)
(1 -2.559154858e-16 -1.060298716e-16)
(1 5.77346061e-17 -3.255974584e-16)
(1 5.216141744e-17 -1.549862807e-16)
(1 2.40594137e-16 -2.090229088e-16)
(1 -2.468643832e-16 5.494097903e-17)
(1 -8.485380811e-17 -2.523717718e-17)
(1 1.719083199e-16 -2.258670541e-16)
(1 1.280602029e-16 -1.412183566e-16)
(1 8.830104526e-17 -2.283836062e-17)
(1 -3.217731026e-16 -1.773991478e-16)
(1 -4.700057496e-17 -2.2293416e-16)
(1 -2.627498122e-16 -1.316210489e-16)
(1 -1.24461355e-16 -3.355622508e-16)
(1 -1.814609262e-16 -1.324599746e-16)
(1 1.62682568e-16 -3.158842782e-16)
(1 -4.062831454e-18 1.290607974e-16)
(1 -1.986996186e-16 -1.883586519e-16)
(1 -7.890799173e-17 -1.546075415e-16)
(1 -1.542954746e-16 -9.827727646e-17)
(1 -2.186768909e-17 -1.735029162e-16)
(1 -2.613139655e-16 -1.456613587e-16)
(1 -1.460396983e-16 -3.78607841e-16)
(1 -4.652787785e-17 3.305732787e-17)
(1 -5.555381286e-17 6.046541667e-17)
(1 -2.338467246e-16 1.636270078e-16)
(1 -3.111372829e-16 5.747584862e-18)
(1 -7.782046112e-17 -2.813177801e-16)
(1 3.754866693e-17 -2.047190657e-16)
(1 -1.279858208e-16 -1.188891558e-16)
(1 -1.112850172e-16 -1.787347713e-16)
(1 -1.919045535e-16 2.685087932e-16)
(1 -1.223852056e-16 1.691211542e-16)
(1 -2.37028616e-16 5.442556697e-17)
(1 -2.602523078e-16 4.127616252e-17)
(1 -1.290942846e-16 -1.116429339e-17)
(1 -1.061925408e-16 -1.001529427e-16)
(1 -7.783392615e-17 -1.279012763e-16)
(1 -9.061132636e-17 -1.251529295e-16)
(1 -4.753758753e-17 -3.087350605e-16)
(1 -1.782569506e-16 3.636622755e-16)
(1 -1.903897357e-16 1.948333777e-16)
(1 -2.62026564e-16 7.232955238e-17)
(1 -1.940589276e-16 4.591673977e-19)
(1 -1.414805761e-16 -1.717580077e-16)
(1 -2.334503171e-16 -6.026403887e-17)
(1 -1.511267751e-16 -1.840697059e-16)
(1 -3.428898446e-17 -2.471135327e-16)
(1 3.483992094e-18 8.17796047e-17)
(1 1.398437035e-16 -1.775500837e-16)
(1 -1.953997438e-16 3.718313985e-16)
(1 -4.800530831e-17 1.075472838e-16)
(1 -1.080002699e-16 -4.572474594e-17)
(1 -7.504515312e-17 -3.6524451e-17)
(1 -8.679474551e-17 1.069461338e-16)
(1 8.59321833e-17 -1.961678814e-17)
(1 -1.061407412e-16 -8.353916593e-17)
(1 -1.946224623e-16 -9.86574955e-17)
(1 -2.140618819e-16 -2.525650911e-17)
(1 1.290008292e-16 -1.394162589e-16)
(1 1.650416522e-17 -2.095182699e-17)
(1 1.66097512e-16 2.079527585e-16)
(1 -3.65323265e-17 -3.85534539e-17)
(1 -1.664254219e-16 1.247415314e-16)
(1 1.76780867e-16 -2.312521066e-16)
(1 -1.729711793e-16 6.607990904e-17)
(1 -2.74466356e-17 -1.434570154e-16)
(1 -2.795300164e-17 -1.786600185e-16)
(1 1.392600418e-16 -1.803294769e-16)
(1 1.737246036e-17 -2.77370045e-17)
(1 1.576818899e-16 -1.485754557e-16)
(1 -2.517459627e-16 -8.520195438e-17)
(1 2.906938264e-17 -1.119022621e-16)
(1 1.001735119e-16 -1.861918343e-16)
(1 1.142519196e-16 -9.448312117e-17)
(1 2.242258462e-16 8.029696652e-17)
(1 -1.442144876e-16 8.010401109e-17)
(1 -1.027154131e-16 -9.428672482e-17)
(1 -2.10747066e-16 -2.668950571e-16)
(1 -4.493965366e-17 -3.570437142e-16)
(1 -7.588840774e-17 1.032259194e-17)
(1 2.329998489e-16 -1.9697015e-16)
(1 -8.986037546e-17 2.482991578e-18)
(1 -1.989569012e-16 -2.325624217e-16)
(1 -1.289042193e-16 -2.071719334e-16)
(1 -1.835961769e-16 -2.017009571e-16)
(1 -9.77787524e-17 -2.356004306e-16)
(1 -2.434889678e-17 -2.045947359e-16)
(1 8.848581846e-17 1.927078229e-17)
(1 -2.097858776e-16 -2.153722865e-16)
(1 -3.649611648e-18 -2.763084306e-17)
(1 -1.872518735e-16 -1.314796845e-16)
(1 -3.354941396e-16 -1.191901016e-16)
(1 -6.320158048e-17 -2.338096419e-16)
(1 -3.000933609e-17 -3.078793737e-16)
(1 -3.155319055e-16 -1.645406788e-16)
(1 -6.871928694e-17 -9.280604683e-17)
(1 -2.7289433e-16 -1.379512345e-17)
(1 -2.728801648e-16 -6.941967563e-17)
(1 -1.814477845e-16 -1.043471083e-16)
(1 -2.623379912e-16 1.732669583e-16)
(1 3.207661353e-17 -1.186247651e-16)
(1 -1.173161936e-16 -1.898013672e-16)
(1 -2.026584903e-17 -3.615762097e-16)
(1 -1.990568481e-16 -1.158712299e-16)
(1 -1.430108859e-16 -2.176898651e-16)
(1 -1.698982232e-16 2.460342478e-16)
(1 -1.966863635e-16 1.287700375e-16)
(1 -2.689300406e-16 1.413119571e-16)
(1 -1.889313606e-16 -1.006783504e-17)
(1 -2.608061911e-16 -9.321201175e-17)
(1 -1.436793662e-16 -7.799764563e-17)
(1 -2.14033421e-16 -1.02481128e-16)
(1 3.104722031e-17 -3.037104761e-16)
(1 -5.403566132e-17 -7.338262818e-17)
(1 4.559640377e-17 -3.441285856e-16)
(1 -4.307398914e-17 3.229313234e-16)
(1 -1.118365114e-16 3.320548673e-16)
(1 -7.923154216e-17 5.296782567e-17)
(1 -1.459237408e-16 5.186444524e-17)
(1 -1.132165826e-16 6.784117726e-18)
(1 -1.116283571e-16 -4.590878768e-17)
(1 -1.300912584e-16 -9.133934281e-17)
(1 -2.396160673e-16 -7.425601474e-18)
(1 -6.132174534e-17 -1.444733559e-16)
(1 1.540747685e-16 -1.80317062e-16)
(1 1.279389467e-16 -2.864238258e-16)
(1 2.132446593e-16 3.600629122e-16)
(1 -1.345556984e-16 1.921207239e-16)
(1 -5.806922669e-17 -2.191633739e-17)
(1 1.244297979e-17 -8.159509236e-18)
(1 -2.205080238e-16 2.65701418e-17)
(1 -4.206985977e-18 -1.010333209e-16)
(1 -5.755241043e-17 -3.321625429e-17)
(1 -6.362186483e-17 -1.650257863e-16)
(1 -2.980186375e-17 -5.023849485e-17)
(1 -2.405091922e-16 -8.746001707e-19)
(1 -7.047993393e-17 -1.125458918e-16)
(1 1.840575553e-16 -1.605938762e-16)
(1 1.829725407e-16 2.258539318e-16)
(1 8.860572479e-17 2.982188081e-17)
(1 1.699289579e-18 1.539757631e-16)
(1 -4.159878162e-17 5.537223773e-18)
(1 -1.246986114e-16 1.164267562e-16)
(1 -2.192001588e-17 -5.419606082e-17)
(1 9.988905222e-17 -2.287267951e-16)
(1 1.051261718e-16 -6.989831659e-17)
(1 -3.957762732e-17 1.32990743e-16)
(1 6.556476205e-17 2.423922892e-17)
(1 -1.181149492e-16 -1.967411048e-16)
(1 9.977341788e-17 -1.786377921e-16)
(1 -2.415783586e-17 -6.216256205e-17)
(1 8.047972153e-17 -4.856080804e-17)
(1 1.885371072e-16 7.024941099e-18)
(1 -5.88500268e-17 1.326130933e-16)
(1 -3.943219336e-17 -1.020834841e-16)
(1 -4.039707145e-17 -2.7545698e-16)
(1 -6.029527322e-17 -1.773506572e-16)
(1 7.388259246e-17 1.562505126e-17)
(1 1.959517552e-16 3.029145539e-17)
(1 -5.698400365e-17 -2.228007257e-18)
(1 -1.955668898e-16 1.759255242e-17)
(1 -1.945534027e-16 -2.846143262e-16)
(1 -1.267361403e-16 -2.859992143e-16)
(1 1.365504006e-17 -2.319564239e-16)
(1 -7.853729655e-17 -7.026013267e-17)
(1 2.195799167e-16 5.805584338e-18)
(1 -2.91177782e-16 -2.209585128e-16)
(1 -1.440224542e-16 -9.460777866e-17)
(1 -1.554867877e-16 -2.692960281e-16)
(1 -1.554924735e-16 -1.656253535e-16)
(1 -9.946300672e-17 -1.569651286e-16)
(1 -1.579635416e-16 -2.377285716e-16)
(1 -1.139101053e-16 -1.620077781e-16)
(1 -2.174788993e-17 -2.750215769e-17)
(1 -4.917541418e-16 -1.140613425e-17)
(1 -3.430633744e-16 -3.455836629e-16)
(1 -1.6761007e-16 -1.426750245e-16)
(1 -2.041801697e-16 5.310756279e-17)
(1 4.503330892e-17 -1.721509601e-16)
(1 -1.347417922e-16 -1.529832662e-16)
(1 -7.657092677e-18 -3.05129103e-16)
(1 -2.147755988e-16 -1.44334762e-16)
(1 -1.866496004e-16 -1.735463048e-16)
(1 -2.468278909e-16 7.105663337e-18)
(1 -2.602894634e-16 -1.301050917e-16)
(1 -2.412830646e-16 6.537418596e-18)
(1 -2.023065322e-16 -5.07504656e-17)
(1 -3.009929099e-16 -9.936656345e-17)
(1 -1.150717986e-16 -1.968508601e-16)
(1 -8.530281009e-17 -1.679363505e-16)
(1 -5.202530431e-18 -5.025536414e-17)
(1 -1.138387047e-17 -1.684835364e-16)
(1 -3.491891036e-17 -2.222718755e-16)
(1 2.94848104e-17 2.025372952e-16)
(1 -2.247464846e-16 2.546235355e-16)
(1 -1.081359786e-16 7.503693944e-18)
(1 -1.704418514e-16 2.409372557e-17)
(1 -2.472698404e-16 1.325811485e-17)
(1 -2.327798388e-16 -1.400381986e-16)
(1 -1.682360485e-16 -1.582968965e-16)
(1 -1.385069521e-16 -1.975568079e-17)
(1 2.089423461e-17 -1.605767129e-16)
(1 1.05102655e-16 -1.530102559e-16)
(1 1.832655653e-16 -3.624872453e-16)
(1 7.517291536e-17 2.506665611e-16)
(1 -1.468228215e-16 3.467126891e-16)
(1 -1.586898202e-17 1.669335901e-16)
(1 -6.741718578e-17 1.268766252e-16)
(1 -1.217870103e-16 -5.231530486e-17)
(1 -8.04899292e-17 -7.278080461e-18)
(1 -1.029232175e-16 -6.744913558e-17)
(1 -1.077582588e-16 -9.64264536e-17)
(1 -2.715211223e-17 -2.954813866e-17)
(1 -1.151748632e-16 -8.547794354e-17)
(1 9.694180422e-17 -1.313931238e-16)
(1 2.876409288e-16 -1.296319336e-16)
(1 3.045986085e-16 1.127784427e-16)
(1 -4.674092896e-17 2.031563489e-16)
(1 -1.090344118e-16 7.645016931e-18)
(1 9.991453194e-18 2.634655173e-17)
(1 -4.406166312e-17 1.173569349e-16)
(1 -7.045110642e-17 -1.644534403e-17)
(1 -6.764948186e-17 -1.858283163e-16)
(1 -3.083437246e-17 -9.418904864e-17)
(1 -9.894912611e-17 2.417591782e-18)
(1 -1.642674537e-16 -9.739576355e-18)
(1 -5.684668134e-17 -2.568627812e-16)
(1 -4.628219221e-17 -1.203429477e-17)
(1 2.081687859e-16 -1.825874469e-16)
(1 1.951168167e-16 3.913025342e-16)
(1 1.36619723e-16 5.792888718e-17)
(1 2.836395281e-17 9.08362874e-17)
(1 4.043776405e-17 1.771336735e-16)
(1 8.044457165e-17 1.584047441e-16)
(1 1.542278577e-16 1.195491094e-16)
(1 1.290493888e-16 1.508137422e-17)
(1 2.30884104e-17 1.129851058e-16)
(1 -2.417162546e-17 1.602471512e-16)
(1 5.972165466e-17 -1.040429934e-16)
(1 -6.866868995e-18 -9.074460095e-17)
(1 2.219809357e-16 -9.286596693e-17)
(1 2.421820451e-17 7.240445133e-17)
(1 3.407928129e-17 7.215469405e-18)
(1 -2.386996454e-17 -1.004936614e-16)
(1 -5.593843734e-17 5.539798723e-17)
(1 1.088522938e-16 -3.921388517e-17)
(1 7.688874483e-17 -2.614409351e-16)
(1 -8.935328782e-17 -8.915299581e-17)
(1 7.838288754e-17 -1.97404711e-17)
(1 1.56461589e-16 -6.109961836e-17)
(1 -1.339637746e-16 -5.004229017e-17)
(1 -3.333848012e-17 7.22417423e-17)
(1 -8.849347294e-17 -2.196550967e-16)
(1 -1.525360244e-17 -1.028512731e-16)
(1 9.637212011e-17 -5.583105734e-17)
(1 -8.239201465e-18 -7.845472681e-17)
(1 1.227163376e-16 6.732576835e-17)
(1 -2.393383979e-16 -4.961439283e-17)
(1 -1.666822241e-16 -9.794053853e-17)
(1 -1.546318129e-16 -1.261697291e-16)
(1 1.81670849e-17 -1.374061925e-16)
(1 1.750309039e-18 -6.929282876e-17)
(1 -1.367654216e-16 -1.144147445e-16)
(1 3.292888178e-17 -2.672021811e-16)
(1 -3.935181892e-17 -4.082541254e-17)
(1 -3.952719e-16 1.374569458e-16)
(1 -1.95351721e-16 -1.715909914e-16)
(1 -3.430962473e-17 -5.31706566e-17)
(1 -1.691819667e-17 -8.112926926e-17)
(1 3.501512635e-17 -1.443081951e-16)
(1 -9.83898903e-17 -1.663401126e-16)
(1 -6.375146473e-17 -1.24996725e-16)
(1 -1.583786945e-16 -1.402733128e-16)
(1 -8.672650702e-19 -2.168779461e-16)
(1 -8.00289205e-17 -1.804283598e-17)
(1 -3.213995962e-16 -5.421495048e-17)
(1 -2.402140703e-16 -1.686654691e-16)
(1 -3.350968493e-17 -1.30001635e-16)
(1 -2.020021151e-16 2.675222617e-17)
(1 -8.218513492e-17 -1.984728393e-16)
(1 5.927536723e-17 -1.899261806e-16)
(1 -5.359548174e-17 1.092452761e-16)
(1 -1.125438091e-16 -1.587216539e-16)
(1 -3.769110031e-17 -1.896006367e-16)
(1 -3.492086038e-17 2.70111238e-17)
(1 -2.208835685e-16 -2.32005641e-17)
(1 -1.765237344e-16 -2.432819982e-17)
(1 -2.072755882e-16 5.11969071e-18)
(1 -3.595740105e-16 -7.535986832e-17)
(1 -2.154360826e-16 -2.989692649e-16)
(1 -9.425590404e-17 -1.893063742e-16)
(1 7.208254959e-17 -1.672128183e-16)
(1 -4.591461535e-17 -1.105824803e-16)
(1 -7.57938494e-17 -1.172935737e-16)
(1 -1.099055232e-17 -1.611703909e-16)
(1 3.673442154e-17 1.143114641e-16)
(1 -8.48855208e-17 2.764195389e-16)
(1 -3.368973966e-17 1.926324675e-16)
(1 -1.254057793e-16 8.388018039e-17)
(1 -1.517785277e-16 -1.186285344e-16)
(1 -2.296516782e-16 4.056358847e-17)
(1 -1.547528629e-16 -1.136018053e-16)
(1 -1.539687215e-16 -1.773022359e-16)
(1 -1.198034792e-16 -9.916779663e-17)
(1 7.307488938e-18 -1.429172867e-16)
(1 1.584414109e-16 -1.271051092e-16)
(1 2.880390363e-16 -9.004856912e-17)
(1 1.760257408e-16 2.949297556e-16)
(1 4.787526292e-17 3.015653875e-16)
(1 -7.860109577e-17 2.606237923e-16)
(1 8.12561553e-17 5.675819784e-17)
(1 -7.652482598e-17 1.126467739e-16)
(1 -5.394430351e-17 2.506448529e-18)
(1 -7.383309925e-17 -4.171332424e-17)
(1 -6.479933709e-17 -1.85374302e-17)
(1 -1.369436212e-16 2.736986398e-18)
(1 -1.121129395e-16 -4.090691062e-17)
(1 7.309517717e-17 -2.805927631e-16)
(1 1.588871502e-16 1.106088509e-17)
(1 2.723447679e-16 -1.412850031e-16)
(1 7.420032209e-17 3.181450073e-17)
(1 -1.252067656e-17 1.067118526e-16)
(1 1.360240849e-16 -1.765149702e-17)
(1 -1.2264093e-16 2.011809311e-16)
(1 1.370049591e-16 -1.056023218e-16)
(1 -1.241105493e-16 1.044835926e-16)
(1 -7.334164728e-18 -4.781562372e-17)
(1 -2.023193362e-17 9.095586373e-17)
(1 1.827146403e-16 -8.59677704e-17)
(1 -9.843607829e-17 3.549082866e-17)
(1 5.308912942e-18 -3.727196513e-17)
(1 -1.82733045e-16 5.997430508e-17)
(1 1.334164907e-16 -7.89517886e-17)
(1 2.778069323e-16 4.320455874e-17)
(1 8.598421314e-17 3.848917024e-16)
(1 1.249657182e-16 2.048932949e-16)
(1 -4.716393677e-18 3.588188702e-16)
(1 7.640221457e-17 2.894740916e-16)
(1 2.172904658e-16 1.18430515e-16)
(1 2.265649226e-16 1.715087289e-16)
(1 9.911946286e-17 4.725944831e-17)
(1 4.118827991e-17 2.75973015e-16)
(1 2.356519416e-16 1.186555855e-16)
(1 -8.616871708e-18 1.830112735e-16)
(1 2.554552915e-16 7.418205209e-17)
(1 1.686134419e-16 1.627089933e-16)
(1 2.362831345e-17 1.299387348e-16)
(1 5.653084377e-17 1.390669133e-17)
(1 1.169202357e-16 -1.071838683e-16)
(1 -3.291335255e-17 2.659279545e-17)
(1 2.128788345e-16 4.990515054e-17)
(1 2.189740013e-16 1.140425879e-16)
(1 8.02566068e-17 4.085920797e-17)
(1 4.85516017e-18 -1.078235335e-16)
(1 6.522642088e-17 -2.603330715e-16)
(1 -8.925220691e-17 -6.395931072e-17)
(1 4.378508369e-17 -1.441044633e-17)
(1 5.903339041e-17 -1.920100102e-16)
(1 -8.513358256e-18 -3.7297676e-17)
(1 -1.066969371e-17 5.855317401e-17)
(1 1.487869038e-16 -2.851633673e-16)
(1 -5.235933335e-17 -1.308004451e-17)
(1 -1.184316941e-16 1.236205279e-16)
(1 -1.307887715e-16 -2.196027457e-16)
(1 -1.890945578e-16 -1.308401132e-16)
(1 1.021880272e-16 3.628100698e-17)
(1 1.931098776e-16 1.245881329e-16)
(1 4.845973538e-17 -9.06289125e-17)
(1 -2.082435889e-17 -1.98663496e-16)
(1 -7.160582484e-17 -7.142499286e-18)
(1 -2.770294623e-16 1.89415558e-16)
(1 -6.005882158e-17 1.403663298e-16)
(1 4.806186863e-17 -1.140739405e-17)
(1 5.825278037e-17 -1.105254389e-16)
(1 -1.577531021e-17 -6.46774992e-17)
(1 4.782949279e-17 -1.222598839e-16)
(1 -4.103787912e-17 -2.288564536e-17)
(1 -9.50303641e-17 -2.049058456e-16)
(1 2.406469873e-17 -1.994657592e-16)
(1 6.294716404e-17 -2.076942802e-17)
(1 -2.201165173e-16 1.548257749e-16)
(1 -5.745495976e-17 -1.202926455e-16)
(1 5.277434748e-18 -3.36281046e-17)
(1 -4.842640326e-17 1.102181444e-16)
(1 9.243554459e-17 -1.235694651e-16)
(1 1.632675461e-18 -1.658454901e-16)
(1 -1.597568929e-16 7.082580296e-18)
(1 -5.525257289e-17 -2.775227978e-16)
(1 -9.352181194e-17 -2.161638865e-16)
(1 5.483594216e-17 2.856959872e-17)
(1 -2.778713241e-17 -6.321638661e-17)
(1 -2.238211077e-16 1.284746775e-17)
(1 -1.785455826e-16 3.402154831e-17)
(1 -1.713264257e-16 -1.058715771e-16)
(1 -1.191192723e-16 -2.336681077e-16)
(1 -2.127332825e-17 -6.962620688e-17)
(1 1.063257234e-16 -1.977885707e-16)
(1 -7.442985515e-17 -2.308007633e-16)
(1 -2.822776902e-16 -5.746999195e-17)
(1 -3.829068329e-17 -6.340389209e-17)
(1 6.745111625e-17 -4.017133479e-17)
(1 -5.447390393e-17 -4.725786762e-17)
(1 -1.659493396e-16 1.51859294e-16)
(1 -1.288135425e-16 -4.149031193e-18)
(1 -1.904720396e-16 -1.190793678e-16)
(1 -2.233771114e-16 2.240425317e-17)
(1 -7.987160738e-17 -1.789807085e-16)
(1 -1.309304279e-16 -1.376418447e-16)
(1 -1.706345923e-16 -1.073075513e-16)
(1 3.520569998e-17 -2.197847934e-16)
(1 -2.272937886e-17 -1.093313816e-16)
(1 4.328942902e-17 -1.741050147e-16)
(1 -1.026525471e-16 2.800816457e-16)
(1 1.007921988e-16 1.711995604e-16)
(1 -5.064796713e-17 3.285242634e-16)
(1 8.009579709e-17 -6.810025412e-18)
(1 -1.371794363e-16 1.818204795e-17)
(1 -1.544341177e-16 6.259907471e-17)
(1 -5.071996285e-17 1.161005695e-17)
(1 -6.294176351e-17 -3.431818759e-18)
(1 -1.481382257e-16 -1.614033003e-16)
(1 -1.17075916e-16 -8.183745305e-17)
(1 6.791288221e-17 -1.816619128e-16)
(1 2.570329862e-16 -6.4084156e-17)
(1 1.912057067e-16 -8.165029364e-17)
(1 8.890194692e-17 1.825987176e-16)
(1 1.324936918e-16 3.890762091e-16)
(1 1.042611023e-16 2.517528817e-16)
(1 -7.915716116e-17 2.254718648e-16)
(1 6.867906144e-17 -6.402984804e-17)
(1 -7.822061722e-17 3.899260057e-17)
(1 -7.681619642e-17 2.240589058e-17)
(1 5.135732292e-18 4.923145986e-17)
(1 3.71006444e-17 1.409453696e-17)
(1 -7.06093257e-17 1.969146121e-17)
(1 7.919730757e-17 1.312107992e-17)
(1 2.460750701e-17 2.832617493e-17)
(1 2.405852971e-16 -1.873618876e-16)
(1 2.523180925e-16 -8.386329158e-17)
(1 -4.831486222e-17 -7.647660775e-17)
(1 -7.774058863e-17 1.734277422e-16)
(1 2.853898022e-16 3.038997786e-17)
(1 -3.799448239e-17 9.69179144e-17)
(1 -3.966135686e-17 -5.357774901e-17)
(1 -1.52057805e-16 1.062543991e-16)
(1 8.149292555e-17 -1.904428586e-16)
(1 -4.821082069e-17 -4.209809822e-17)
(1 -3.24866571e-17 2.120388443e-16)
(1 1.788132529e-16 2.722770718e-17)
(1 -6.420356892e-17 3.708293824e-17)
(1 1.346289859e-16 1.620343961e-16)
(1 1.064476127e-16 -6.442985811e-17)
(1 5.422374795e-17 -8.180855084e-17)
(1 3.152877413e-17 2.164380975e-16)
(1 -2.639664881e-17 1.835801047e-16)
(1 6.312840679e-17 2.629073807e-16)
(1 -4.252978138e-17 5.08030983e-16)
(1 9.913212422e-17 4.780613063e-16)
(1 1.827374211e-16 2.045570673e-16)
(1 1.012176879e-16 2.062438051e-16)
(1 9.313755953e-17 5.257245884e-17)
(1 7.861356534e-17 2.737458384e-16)
(1 3.213847286e-16 8.349173867e-17)
(1 -3.456331211e-17 3.942989274e-16)
(1 2.082167903e-16 1.365479464e-16)
(1 4.237108171e-17 1.831559726e-16)
(1 6.88442631e-17 1.923673687e-16)
(1 1.409151246e-16 1.40254942e-16)
(1 1.425862885e-16 -5.508473348e-17)
(1 1.674259778e-16 -1.546891886e-17)
(1 2.10835643e-16 1.221661389e-16)
(1 1.276595559e-16 2.275965787e-16)
(1 1.031041986e-16 -2.435895177e-17)
(1 7.515221043e-17 -3.418158926e-17)
(1 1.175866735e-16 6.410627981e-18)
(1 2.242010442e-16 -5.860295207e-17)
(1 -1.383607242e-17 2.481381994e-17)
(1 1.18782092e-16 3.673834895e-17)
(1 1.557707575e-16 -9.723178961e-17)
(1 -8.076316938e-17 7.134352232e-18)
(1 1.404548519e-16 -2.788438555e-16)
(1 -4.034433389e-17 -3.199258248e-16)
(1 -5.057706712e-17 2.254783161e-17)
(1 -1.113581067e-16 -1.306397379e-16)
(1 -1.607658806e-16 -2.165337458e-16)
(1 1.183512369e-16 -8.909592828e-17)
(1 1.048545409e-16 1.452666346e-16)
(1 7.430835484e-17 -1.805517253e-16)
(1 -3.795940693e-17 -1.389931542e-16)
(1 1.89865167e-17 -2.011616e-17)
(1 -1.136524366e-16 5.880812906e-17)
(1 -1.585767329e-17 1.771948305e-16)
(1 -2.479518076e-17 -7.357560364e-17)
(1 7.971174633e-17 -1.584492276e-16)
(1 -1.486639359e-16 1.277745362e-16)
(1 1.46669701e-16 -1.796262035e-16)
(1 4.293618905e-19 4.590424705e-17)
(1 -1.759086931e-17 -1.43804706e-16)
(1 -2.956116066e-17 -1.512934688e-16)
(1 -9.976792045e-17 -1.038908035e-17)
(1 -2.529424301e-16 7.785935161e-17)
(1 -5.19021077e-17 2.066362889e-17)
(1 -2.554060328e-17 2.378664252e-17)
(1 -1.361071081e-17 9.121981969e-18)
(1 1.008783317e-16 -1.761963115e-16)
(1 -5.534937307e-17 -1.546073316e-16)
(1 -2.860426158e-17 1.266032026e-17)
(1 6.154572864e-17 -3.751073764e-16)
(1 -2.416485784e-16 -2.623213922e-16)
(1 -7.514812298e-17 6.452856024e-17)
(1 -4.737406862e-17 -5.519062221e-17)
(1 -2.928689175e-16 -5.765668916e-17)
(1 -1.942870551e-16 -4.913863408e-17)
(1 -3.712219543e-17 -1.799913126e-16)
(1 -8.962936285e-17 -1.600022667e-16)
(1 3.566150579e-17 4.91861312e-17)
(1 6.01686456e-17 -2.718013588e-16)
(1 -2.102016981e-16 -3.573588675e-16)
(1 -3.11230197e-16 -1.37144593e-16)
(1 5.667079659e-17 -6.940659766e-17)
(1 1.351198782e-16 -6.279859694e-17)
(1 3.17579398e-17 -9.850031666e-17)
(1 -1.073934297e-16 9.543637391e-17)
(1 -6.111734973e-17 5.526262434e-18)
(1 -1.156128665e-16 -4.664636725e-17)
(1 -9.153201817e-17 -7.742898135e-17)
(1 -8.050273785e-17 -1.027709068e-16)
(1 -7.034438619e-18 -4.239243271e-17)
(1 -9.329823151e-17 -1.364333701e-16)
(1 -5.298270872e-17 -1.974593218e-16)
(1 -1.138448049e-16 -1.226447782e-16)
(1 -1.099705734e-16 -1.791303348e-16)
(1 -2.151544117e-16 7.27772869e-17)
(1 1.110798668e-16 1.641918704e-17)
(1 -3.439242584e-18 1.431374161e-16)
(1 -7.532614931e-17 4.17198113e-18)
(1 -1.833104613e-16 -1.692209076e-16)
(1 -2.96623152e-16 6.584491995e-18)
(1 -7.937003171e-17 2.363290536e-19)
(1 -2.248470268e-17 -7.526165876e-17)
(1 -2.552981451e-17 -2.325160476e-16)
(1 -6.134774947e-17 -4.921936498e-17)
(1 2.104614672e-17 1.486396848e-18)
(1 1.051019828e-16 -1.213187799e-16)
(1 2.138846074e-17 3.017090082e-17)
(1 -1.748041054e-16 2.694759289e-16)
(1 4.283812341e-17 2.472205849e-16)
(1 2.232295347e-18 2.998808107e-16)
(1 6.51815744e-18 2.033496124e-17)
(1 -8.396716593e-17 -8.09848939e-17)
(1 -8.903689679e-17 1.294304596e-16)
(1 -7.115348307e-17 9.76828575e-18)
(1 -9.048826004e-17 -4.336628136e-17)
(1 -8.972792799e-18 -4.798443325e-17)
(1 -1.103094438e-16 -6.20546856e-17)
(1 -2.785361828e-17 6.145486981e-17)
(1 2.138545708e-16 -8.045978811e-17)
(1 1.682759311e-16 -1.822889955e-16)