/*--------------------------------*- C++ -*----------------------------------*\
| =========                 |                                                 |
| \\      /  F ield         | OpenFOAM: The Open Source CFD Toolbox           |
|  \\    /   O peration     | Version:  2212                                  |
|   \\  /    A nd           | Website:  www.openfoam.com                      |
|    \\/     M anipulation  |                                                 |
\*---------------------------------------------------------------------------*/
FoamFile
{
    version     2.0;
    format      ascii;
    arch        "LSB;label=32;scalar=64";
    class       volScalarField;
    location    "0.4";
    object      p;
}
// * * * * * * * * * * * * * * * * * * * * * * * * * * * * * * * * * * * * * //

dimensions      [0 2 -2 0 0 0 0];

internalField   nonuniform List<scalar> 
42875
(
7.873849171e-16
-4.18447994e-16
4.350850775e-16
-8.657302742e-16
-1.142296176e-15
-3.854997395e-16
-6.462631375e-16
2.76403803e-16
-1.335665407e-17
-3.669763656e-16
-1.133147476e-15
-1.047001973e-15
-8.117330845e-16
-6.130654725e-16
-6.012530029e-16
-9.188369286e-16
2.616228141e-17
1.841145226e-16
-2.975847229e-16
-4.59564573e-16
-1.58949509e-15
-7.959514467e-16
-7.848340642e-16
-8.236998137e-16
-8.757163241e-16
-1.292645645e-15
-9.776069376e-17
-2.315890115e-16
-6.018662138e-16
-1.08326544e-15
-5.013243361e-17
-2.365733722e-17
-1.676184639e-16
-3.370952902e-16
-4.88914979e-17
-1.779937959e-15
-1.285833659e-15
-1.401860602e-15
-7.414886029e-16
-6.655614804e-16
-1.004677617e-15
-7.362257199e-16
-7.905583273e-16
-9.10276277e-16
-1.346399489e-15
-2.687981613e-16
-2.686672494e-16
-6.293217962e-16
-9.232786792e-16
-1.678478254e-15
4.659586512e-16
-4.242559209e-16
-7.163830939e-16
-4.589377061e-16
-6.2546292e-16
-6.55647281e-16
-1.538175181e-15
-1.695871422e-15
-1.023380741e-15
-9.332363342e-16
-1.336589773e-15
-1.309174017e-15
-7.040665864e-16
-9.034397022e-16
-1.143816667e-15
-1.21738969e-15
-6.561987343e-16
-4.602326972e-16
-7.750842454e-16
-1.028889232e-15
-1.729586333e-15
1.756651504e-16
-2.085344935e-16
-3.818734805e-18
-1.225575015e-15
-1.167328581e-15
-1.646926928e-15
-5.92937456e-17
-3.548018302e-16
-4.044723735e-16
-8.217404437e-16
-8.218493802e-16
-7.522255674e-16
-1.247596115e-15
-1.192088239e-15
-1.460130314e-15
-9.510514344e-16
-1.286275112e-15
-1.536044547e-15
-7.030411547e-16
-1.205835415e-15
-1.466428219e-15
-1.155349583e-15
-1.53115836e-15
-8.367132629e-16
-8.124158474e-16
-1.004046658e-15
-8.810181112e-16
-1.496370809e-15
-4.339600345e-16
-2.75180233e-16
-4.341491767e-16
-8.527097174e-16
-1.104077155e-15
-1.625973527e-15
3.975301827e-17
-4.761509806e-17
-4.067957422e-16
-7.685137323e-16
-1.239857545e-15
-1.49087376e-15
-1.660446779e-15
4.694230253e-16
-1.372909841e-16
-5.525728015e-16
-1.003624365e-15
-1.161389665e-15
-6.224630462e-16
-1.446206683e-15
-1.227487907e-15
-7.028491201e-17
-6.279115034e-16
-8.153038832e-16
-1.209509486e-15
-8.148834546e-16
-1.396854651e-15
-1.103977147e-15
-1.569940531e-15
-9.792700049e-16
-6.26421895e-16
-1.085484564e-15
-9.426795045e-16
-1.468884844e-15
-1.09372041e-15
-1.261552269e-15
-1.208160298e-15
-3.910244823e-16
-6.06312689e-16
-8.143370621e-16
-1.028580773e-15
-1.314608723e-15
-2.89982169e-16
-4.766922006e-16
-3.241291057e-16
-9.368460724e-16
-1.051628449e-15
-1.258746725e-15
-1.790343619e-15
6.340560762e-17
-1.517823958e-17
-1.469149723e-16
-8.119181266e-16
-9.393854373e-16
-1.208153414e-15
-1.543720719e-15
-1.720985122e-15
1.905680156e-16
-4.693843818e-16
-8.696141534e-16
-9.88166398e-16
-9.110729563e-16
-1.232230949e-15
-1.258812812e-15
-1.347672863e-15
-1.668170209e-15
-2.835967781e-16
-1.380762546e-16
-7.811983093e-16
-8.133544897e-16
-4.216834283e-16
-4.308325176e-16
-9.984097321e-16
-1.098931648e-15
-8.289137886e-16
-5.972622742e-16
-1.0321703e-15
-1.062053991e-15
-9.950886777e-16
-1.082192654e-15
-4.961181681e-16
-1.18009196e-15
-9.809098111e-16
-1.11030975e-15
-1.030026762e-15
-1.228376502e-15
-1.216001692e-15
-5.191798631e-16
-6.288746923e-16
-6.63630023e-16
-7.591625993e-16
-1.054516298e-15
-1.243520365e-15
-1.100801039e-15
-1.686980959e-16
-5.083684295e-16
-5.555688566e-16
-5.722565161e-16
-7.60335237e-16
-1.408695273e-15
-1.235278755e-15
-1.516355015e-15
1.917940658e-16
2.385297887e-16
1.549592134e-16
-3.517351161e-16
-8.222979351e-16
-1.066113553e-15
-1.045558949e-15
-1.299290539e-15
-1.452375004e-15
-3.477184203e-16
-6.289178765e-16
-1.305651799e-16
-4.415665274e-16
-4.305169917e-16
-1.137778636e-15
-1.09258818e-15
-1.006554185e-15
-1.759280297e-15
-1.158872481e-15
-3.762835144e-16
-2.56450988e-16
-5.395441096e-16
-9.764017611e-16
-5.081597384e-16
-4.614064802e-16
-8.296138812e-16
-4.3385211e-16
-5.24321394e-16
-1.984711734e-16
-3.547168472e-16
-8.388108441e-16
-8.911889187e-16
-7.520333692e-16
-2.527181145e-16
-1.422095888e-15
-1.187733146e-15
-1.424797887e-15
-1.254045142e-15
-8.789688041e-16
-5.800826777e-16
-7.150697587e-16
-6.057706857e-16
-8.902735411e-16
-7.872386471e-16
-1.039123688e-15
-1.348254922e-15
-1.057482598e-15
-6.920067205e-16
-7.498209995e-16
-5.827932937e-16
-8.127207638e-16
-1.103933242e-15
-1.073871766e-15
-1.164188564e-15
-1.743617849e-15
-1.426555858e-16
-1.795644611e-16
-5.77958729e-16
-4.54452472e-16
-7.740624309e-16
-1.493654381e-15
-1.437870761e-15
-1.253202645e-15
-1.657275492e-15
-2.658796871e-17
2.027944018e-16
2.163438886e-17
-5.188584353e-16
-5.739248869e-16
-1.030315113e-15
-1.198726914e-15
-1.195305783e-15
-1.275585182e-15
-1.266205354e-15
2.040779692e-16
-6.852121725e-16
-2.25270757e-16
-1.918806721e-16
-7.2037845e-16
-1.121202408e-15
-1.39436536e-15
-1.459791629e-15
-8.519500192e-16
-1.492035751e-15
-1.285174093e-15
-6.839465289e-16
-4.644493314e-16
1.406171504e-16
-7.034843761e-16
-6.746708498e-16
-8.123596252e-16
-8.428692633e-16
-4.340976108e-16
-7.283782755e-16
-3.104809591e-16
-5.598705013e-16
-6.124579248e-16
-5.085539851e-16
-1.162833062e-16
-4.825305094e-16
-3.764290854e-16
-4.110448234e-16
-5.689750497e-16
-6.497835074e-16
-4.717928117e-16
2.098478629e-16
-1.00689943e-15
-7.711786421e-16
-1.089025788e-15
-8.18031323e-16
-8.880043472e-16
-8.126228033e-16
-4.647807644e-16
-1.034914085e-15
-5.42652359e-16
-6.972382749e-16
-7.585657085e-16
-1.04855824e-15
-9.094888318e-16
-9.576466375e-16
-1.797197484e-15
-3.936162144e-16
-3.954518318e-16
-6.390181036e-16
-6.040133965e-16
-1.031873006e-15
-8.783888996e-16
-1.251176976e-15
-1.279776973e-15
-1.494194396e-15
2.828860173e-16
-2.018791583e-16
-1.071192276e-16
-3.834031562e-16
-4.975727526e-16
-1.003203172e-15
-1.458460777e-15
-1.670452065e-15
-1.215374185e-15
-1.989426947e-15
-3.934980229e-16
-8.706947805e-17
2.719110855e-16
-4.866307038e-16
-3.549365529e-16
-9.694618652e-16
-1.089249057e-15
-1.19125178e-15
-1.278137101e-15
-8.691921476e-16
-1.635117222e-15
9.805805616e-16
-4.987969099e-16
2.96456111e-16
1.446829081e-16
-4.452287877e-17
-1.250070004e-15
-1.818598379e-15
-7.53169382e-16
-1.093576999e-15
-1.283591586e-15
-1.310558119e-15
-1.035261533e-15
-8.059027981e-16
-4.176061904e-16
-3.973513579e-16
-2.924996338e-16
-1.150871101e-16
-2.955184083e-16
-8.517256843e-16
-5.502767753e-16
-3.68697797e-16
-7.772023938e-16
-8.090740062e-16
-5.311730666e-16
-4.325864716e-16
-4.714111747e-16
-6.328789018e-16
-4.083079457e-16
-4.620593114e-16
-4.837634714e-16
-2.7104884e-16
-3.308424236e-17
-2.750751716e-16
-5.707085782e-16
-2.794405497e-16
-6.149844503e-16
-4.033012143e-16
-4.820201148e-16
-6.880007498e-17
-1.626321982e-16
-8.712540732e-16
-8.364186893e-16
-6.10636299e-16
-6.837730176e-16
-6.954775879e-16
-8.610383504e-16
-8.261913032e-16
-5.012349729e-16
-1.296093675e-16
-4.224679549e-16
-4.032416943e-16
-3.188636205e-16
-9.178937915e-16
-7.430101985e-16
-7.232662492e-16
-1.377590456e-15
-1.335016985e-15
4.991265679e-18
-3.653154644e-16
-5.908500193e-16
-5.762428866e-16
-1.019319074e-15
-9.886625645e-16
-1.337621245e-15
-1.657968976e-15
-1.275143676e-15
-1.672832134e-15
-1.02007862e-16
2.460628884e-16
-6.380151829e-17
-4.163178085e-16
-4.458391259e-16
-8.521117224e-16
-1.03252924e-15
-1.430701673e-15
-1.578370116e-15
-1.459024541e-15
-2.163920975e-15
1.358045859e-16
-2.46063726e-16
-3.393482745e-16
-4.911107862e-16
-3.862373297e-16
-8.25647275e-16
-1.080818814e-15
-1.280870919e-15
-1.514489337e-15
-1.207799968e-15
-1.354192343e-15
-1.304608153e-15
3.056282887e-16
5.01369762e-17
3.430490113e-16
2.282429931e-16
3.238881902e-16
-3.283518464e-16
-1.093376407e-15
-1.161413269e-15
-6.305198581e-16
-1.009989695e-15
-7.751145148e-16
-1.646224143e-15
-9.814346915e-16
-6.39334384e-16
-2.576188136e-16
-6.431426884e-16
-1.599702705e-16
-1.113329287e-16
-4.065999485e-16
-1.412696871e-16
-2.957023026e-16
-2.755950478e-16
-8.017127948e-16
-7.512882271e-16
-7.761510131e-16
-5.134206845e-16
-4.296405677e-16
-4.56691724e-16
-8.018669906e-16
-6.872602807e-16
-6.0445704e-16
-4.032705906e-16
-7.62567219e-16
-8.692357332e-16
-3.858552741e-16
-2.47373007e-16
-4.421607269e-16
-1.500697127e-16
-6.692404981e-17
1.646735107e-16
1.06868337e-16
-2.637581103e-16
-3.453408601e-16
-3.567924234e-16
-4.121938896e-16
5.095156516e-17
-3.377772549e-16
-3.712882648e-16
-2.684027452e-16
-1.511810902e-16
-7.000163531e-16
-5.533045547e-16
-4.939947981e-16
-3.475075363e-16
-4.490108345e-16
-4.908061179e-16
-1.043836051e-15
-7.727226111e-16
-4.587987407e-16
-1.246963013e-16
-7.183001926e-16
-2.460966674e-16
-2.859835324e-16
-5.371019534e-16
-7.39710937e-16
-1.183894178e-15
-1.322418648e-15
-1.249390412e-15
2.05833731e-16
-1.023831666e-16
-1.076733324e-16
-1.937543976e-16
-6.980182584e-16
-5.259779561e-16
-7.977510581e-16
-1.271133025e-15
-1.535559426e-15
-1.357092494e-15
-1.231964747e-15
8.786532884e-17
8.430501676e-17
-2.626696678e-16
-2.53742919e-16
-5.783074767e-16
-5.799305825e-16
-6.374403549e-16
-1.5089064e-15
-1.459286206e-15
-1.426023338e-15
-1.652836932e-15
-1.730746784e-15
2.00313072e-16
-2.831370616e-16
-1.372114716e-16
-3.494755859e-16
-6.566226011e-16
-8.037156504e-16
-1.198264707e-15
-1.19852837e-15
-1.428447896e-15
-1.66308778e-15
-1.44338601e-15
-1.133604646e-15
-1.151137178e-15
3.93038189e-16
-3.528905337e-16
4.033357455e-16
-5.097812466e-16
4.796292883e-16
-4.636078297e-16
-1.59824669e-16
-1.039839553e-15
-9.968303055e-16
-1.040953404e-15
-1.048236665e-15
-9.505310088e-16
-1.64165256e-15
-1.174486084e-15
-7.177828497e-17
-3.951776855e-16
-7.561731439e-16
-2.107272017e-16
-5.830510548e-16
-5.973518131e-16
9.421301774e-18
3.223011696e-16
1.642944159e-16
-4.89741803e-16
1.776138487e-17
-3.27769955e-16
-5.238380155e-16
-5.735104739e-16
-4.77196346e-16
-4.648767759e-16
-7.866128099e-16
-3.886874943e-16
-3.378796877e-16
-8.236404709e-16
-3.100024963e-16
-5.784893135e-16
-7.00282962e-16
-5.057210854e-16
-7.006506887e-16
-7.131031978e-16
-5.139447546e-16
-4.532822427e-16
-2.07891492e-16
-3.256182788e-16
-1.868308441e-16
1.673570308e-17
-3.782108828e-17
-1.852427259e-16
1.398417286e-16
1.353815892e-16
-2.506203329e-16
-5.798200305e-16
-4.455735976e-16
-2.734231237e-16
-7.22683319e-17
4.415468159e-17
-2.736173033e-16
-2.57307965e-16
-1.652620005e-16
1.917489852e-17
-4.612932159e-16
-4.436889554e-16
-6.379375568e-16
-2.416149048e-16
-5.882052311e-16
-4.327835724e-16
-1.144901567e-15
-9.945879269e-16
-1.254234662e-15
-9.486518501e-17
-4.501235018e-16
-4.334312337e-16
-6.804630552e-17
-1.998396428e-16
-2.227573089e-16
-3.275834592e-16
-1.09944453e-15
-1.191832923e-15
-1.371934306e-15
-1.031624867e-15
-3.558753362e-16
3.730745293e-16
-5.124116057e-17
-4.465892565e-16
-3.820811461e-16
-2.215440966e-16
-5.389549489e-16
-1.102037161e-15
-1.169351318e-15
-1.433015542e-15
-1.38712231e-15
-1.733488465e-15
3.181994843e-17
6.082198855e-17
-6.577933144e-17
-2.446362227e-16
-3.396656931e-16
-4.640201749e-16
-8.457953719e-16
-1.170775666e-15
-1.454390481e-15
-1.712383201e-15
-1.237557234e-15
-1.328579529e-15
-1.481552627e-15
3.102468155e-16
1.53433258e-16
-3.113053161e-16
-6.67115423e-17
-1.427536734e-16
-4.597122707e-16
-9.735040505e-16
-1.204047263e-15
-1.4220007e-15
-1.357793568e-15
-1.884307336e-15
-1.47249972e-15
-9.007890654e-16
-1.19919141e-15
1.094752911e-16
-2.301347576e-16
1.158854004e-16
-3.416921911e-16
-5.504514399e-16
3.783642278e-16
-6.968939572e-17
-4.945374228e-16
-1.245377181e-15
-5.236841053e-16
-6.006437962e-16
-9.688535273e-16
-9.698168669e-16
-1.551238547e-15
-9.6701866e-16
-2.071180603e-16
-1.042290557e-17
-3.858841643e-16
8.507244517e-17
-5.086761651e-16
-5.425436237e-16
1.322832546e-16
-4.381936027e-16
-4.353809117e-16
-1.866019887e-17
-7.128496682e-17
1.559444019e-17
7.290481632e-17
-4.262474037e-16
-6.413507643e-16
-2.328273851e-16
2.601626969e-16
-2.362742751e-16
-1.081283672e-16
-6.877291671e-16
-9.130164922e-16
-5.079322917e-16
-8.24936468e-16
-4.211516123e-16
-2.760805368e-16
-4.666086917e-16
-6.416493795e-16
-1.099087139e-15
-9.630778798e-16
-5.663997036e-16
-5.348014081e-16
-5.640802145e-16
-5.80916902e-16
-2.560203975e-16
-2.699199273e-16
-4.254676394e-16
-2.194289962e-16
-5.352317903e-16
-1.656630285e-16
1.074731407e-16
1.161009461e-16
-2.523563608e-16
-2.957733515e-17
1.221523304e-16
-3.686798234e-16
3.204296477e-16
-5.306425986e-16
-4.050559069e-16
-4.065415614e-16
-1.04460175e-16
-1.675198598e-16
-3.325756809e-16
-6.200482084e-16
-3.284050025e-16
-2.744450531e-16
3.299289146e-16
-5.644952081e-16
-5.442460267e-16
-4.849752454e-16
-3.601463832e-16
-9.19648703e-16
-8.119525997e-16
-8.010790681e-16
-1.367190029e-15
-1.297379333e-15
-9.174442923e-16
-3.845188313e-16
-1.46262182e-16
-2.896056057e-16
-1.263797915e-16
-3.440343785e-16
-4.053528549e-16
-5.31504284e-16
-1.003495962e-15
-1.015022505e-15
-1.223097988e-15
-9.753505455e-16
-1.560214927e-15
-4.31501857e-16
3.851869568e-16
3.014353663e-17
-1.233639766e-16
-4.153913571e-16
-5.332604104e-16
-3.88527661e-16
-9.538898863e-16
-1.151569844e-15
-1.119604445e-15
-1.470619044e-15
-1.558161578e-15
-1.503336688e-15
3.800262681e-17
-4.567604315e-16
9.054238466e-17
-1.106214364e-16
-3.94450537e-16
-3.07507077e-16
-6.817856975e-16
-1.060745298e-15
-1.31993804e-15
-1.678671662e-15
-1.408388956e-15
-1.356445041e-15
-1.592249594e-15
-1.366830973e-15
1.58747828e-16
-2.639263657e-16
1.960964967e-18
-8.923655198e-17
-6.178114749e-17
-7.306551207e-16
-6.433854151e-16
-7.904916294e-16
-1.109976751e-15
-1.669671302e-15
-1.52079762e-15
-1.518455074e-15
-1.067244543e-15
-1.209386959e-15
-1.204989348e-15
6.685932054e-16
2.933767539e-16
-1.405797663e-16
-4.133640565e-16
-1.882762536e-17
-4.802775504e-16
-1.540742719e-16
-7.268531577e-18
-4.744576182e-16
-1.524875826e-15
-6.267953684e-16
-9.264814435e-16
-1.480342815e-15
-7.90322044e-16
-7.797390694e-16
-1.783208227e-15
-7.389055767e-16
-3.440473253e-16
-4.638102147e-16
7.602043709e-17
-2.812306312e-16
-6.49646761e-17
3.330649878e-16
-1.935117712e-16
-5.031660879e-16
-3.857916806e-16
5.16377189e-18
1.742293852e-16
-3.230857655e-16
-1.212664974e-16
-5.669027097e-16
4.878909538e-17
-3.283256316e-17
-4.414056272e-17
-1.612479323e-16
-5.725745364e-16
-6.155868586e-16
-9.98529007e-18
-4.314055507e-17
2.944857698e-16
-5.346628728e-16
-3.895606371e-16
-5.340020089e-16
-1.13033393e-15
-1.165306254e-15
-3.162991815e-16
-7.32846047e-16
-1.712394318e-16
-5.502933597e-16
-1.934487595e-16
-8.316369701e-16
-3.63056174e-16
-1.005369342e-15
-6.06630257e-16
-8.25180097e-17
-6.180602124e-16
-2.626773399e-16
-2.457463964e-16
-1.897140605e-16
-2.388098015e-16
-4.530109731e-16
-2.017247368e-16
1.404341735e-16
-1.849940012e-16
-1.195231258e-16
1.428776917e-16
-7.208820112e-17
-8.351198022e-17
6.652588663e-17
1.866567367e-16
-7.357877125e-16
-3.679767915e-16
-1.54458549e-16
-8.662684755e-18
-2.989816772e-16
-2.341026699e-16
-4.024772079e-16
-5.529971001e-16
-4.253359049e-17
-6.963753257e-16
-4.86916672e-16
-6.169616622e-16
-1.127126839e-16
-2.385480982e-16
-2.289179423e-16
-2.514538834e-16
-7.345643531e-16
-9.541401799e-16
-9.77495592e-16
-1.136758716e-15
-1.034483432e-15
-1.173292764e-15
-8.831086604e-16
-1.206403399e-15
-2.163515478e-16
-2.29548117e-16
-3.901622489e-16
-4.322964523e-16
7.737201532e-17
-6.876926631e-16
-4.527284719e-16
-6.398662882e-16
-1.08008839e-15
-1.082504206e-15
-1.298763589e-15
-1.318791212e-15
-1.591944425e-15
-2.924336157e-16
4.793499119e-18
1.655320256e-16
1.14152402e-16
-2.17190726e-16
-7.143385234e-16
-3.633461267e-16
-7.336052111e-16
-9.907975385e-16
-1.321356554e-15
-1.125219949e-15
-1.407865983e-15
-1.46316048e-15
-1.171200211e-15
6.194431433e-16
5.133039491e-17
-1.757347053e-16
-8.038396398e-17
-7.448822733e-17
-4.400144346e-16
-9.860199117e-16
-9.277572057e-16
-9.275265806e-16
-1.400068142e-15
-1.889298982e-15
-1.440401665e-15
-1.326069836e-15
-1.129276072e-15
-1.367162952e-15
8.778393589e-16
-2.6983738e-16
-4.343623253e-16
-2.04849979e-16
-6.841199094e-17
-3.210513478e-16
-3.363802751e-16
-8.590192342e-16
-1.18923638e-15
-1.311121956e-15
-1.540979134e-15
-1.18409724e-15
-1.167517027e-15
-9.575843064e-16
-1.45049503e-15
-5.726099015e-16
7.002168917e-16
-9.125823175e-17
-2.118850923e-16
-1.022877471e-15
-6.138537509e-16
3.991314502e-16
-1.452648571e-16
4.843692816e-16
-1.764230531e-16
-3.460438569e-16
-9.549100226e-16
-5.925471462e-16
-1.285564594e-15
-8.482639597e-16
-7.055247838e-16
-1.38464071e-15
-2.059807526e-15
-1.278610371e-15
-5.476902584e-16
-7.198307367e-16
-4.359413329e-16
-4.195611461e-16
-7.754906864e-16
3.538446462e-16
-7.932653388e-17
-2.08863255e-16
-4.509632206e-16
2.890917308e-16
7.65625485e-17
-1.11029365e-16
-5.402622683e-16
-2.654561504e-17
1.191009055e-16
-1.865017249e-16
-2.388272189e-16
-6.928035276e-16
-3.209745151e-16
-1.574947373e-16
-1.334392344e-16
9.4769073e-18
-3.236796044e-18
-2.621874518e-16
-5.2778687e-16
-6.355334084e-16
-9.484053053e-16
5.244461671e-16
5.236230621e-16
7.488778548e-17
-2.299128246e-16
-4.376786795e-16
-5.065312247e-16
-8.303101361e-16
-9.087877767e-16
-9.24839772e-16
-4.198782581e-16
-6.565595734e-16
-7.473933506e-16
-3.494578602e-16
-4.031582003e-16
-8.984428863e-16
-7.090236239e-16
-8.122322728e-16
-1.016024469e-15
-5.466923646e-16
-2.005483232e-16
-2.873821768e-16
-2.736182216e-16
-2.925707128e-16
-1.297240321e-16
-1.447146713e-16
-5.051528349e-16
-8.097938126e-16
-3.578095472e-16
-4.505546369e-17
1.296704795e-16
-1.090186877e-16
2.294894146e-16
-5.742684311e-16
-3.594453502e-16
-3.662465608e-16
-7.582993737e-17
-4.008168392e-16
-8.925379421e-16
-7.763767985e-17
-2.820260858e-16
-1.24165025e-16
8.120585978e-17
-2.837631642e-16
-1.409199929e-16
-4.29818974e-16
-5.520560858e-16
-4.844139255e-16
-6.45276884e-16
-7.807156586e-16
-9.953869648e-16
-1.412616189e-16
-4.62503284e-16
-2.602012877e-17
-8.432125346e-17
-3.172749227e-16
-7.782101587e-16
-1.160730249e-15
-9.523732594e-16
-9.670304032e-16
-1.059316868e-15
-1.150334248e-15
-8.266024975e-16
-9.052424167e-16
-4.152677383e-16
-1.040582042e-17
-4.253918664e-16
-1.346978808e-17
-3.584608109e-16
-2.025585606e-16
-4.876333712e-16
-8.107418142e-16
-5.877508474e-16
-9.646727108e-16
-9.428910444e-16
-1.2295565e-15
-1.315235225e-15
-1.844710062e-15
2.303401346e-16
-5.450165788e-19
-7.411587262e-18
1.720642467e-16
-3.342734589e-16
-1.798506197e-16
-3.204318445e-16
-4.412890932e-16
-4.630316133e-16
-1.085172282e-15
-1.563852299e-15
-1.115601405e-15
-1.762342628e-15
-1.357513964e-15
-1.228153365e-15
4.215596332e-16
2.678993565e-16
-2.185215159e-16
-3.782688732e-16
-5.22804101e-17
-2.741852057e-17
-3.895650488e-16
-1.206959691e-15
-1.026133602e-15
-1.158186655e-15
-1.565850494e-15
-1.382226687e-15
-1.061175995e-15
-1.396643449e-15
-1.583563379e-15
-9.314323142e-16
7.151370222e-16
5.639162193e-16
-3.188416497e-16
-2.583461169e-16
-7.896873544e-17
-2.90814195e-16
-2.725050578e-16
-7.842854177e-16
-8.877653042e-16
-1.093583253e-15
-1.027570535e-15
-1.291350892e-15
-1.153374464e-15
-1.117680152e-15
-1.149899332e-15
-1.206876598e-15
-9.378312848e-16
4.391574123e-16
-9.969592135e-17
2.762438019e-16
-1.169333663e-15
-9.722950534e-16
-5.059943209e-16
4.962426571e-17
1.312545675e-16
-4.1516561e-18
-5.878111415e-16
-2.100064779e-16
-1.385104126e-15
-8.936517688e-16
-8.930575991e-16
-1.040458575e-15
-8.472695288e-16
-1.224249465e-15
-1.068277353e-15
-5.898354353e-16
-9.633309207e-16
-9.702493845e-16
-4.347486829e-16
-6.086481133e-16
-1.034315904e-15
-8.027603237e-16
-5.300299425e-16
-3.435301753e-16
-1.099349535e-15
9.370744164e-17
-1.522264963e-16
1.060701947e-16
-1.949133422e-16
-2.573715243e-16
7.00019645e-17
-5.316222804e-17
-8.847267131e-18
-3.153000211e-16
-6.02090356e-16
-4.248784109e-16
1.833834259e-16
-6.131398054e-17
-5.336630883e-16
-5.187727231e-17
-5.154470027e-16
-7.188807491e-16
3.977113304e-17
2.744596636e-16
1.156754351e-16
2.427832251e-17
-1.173147353e-16
-5.523940462e-16
-7.306513792e-16
-8.115523328e-16
-1.063262277e-15
-1.212445126e-16
1.737361211e-16
-3.088638352e-17
-2.530955357e-16
-2.906676572e-16
-8.233933492e-16
-6.927538023e-16
-7.542056376e-16
-6.007649067e-16
-1.063615086e-15
-4.723816952e-16
-3.396064682e-16
-7.433427897e-16
-1.070866858e-15
-4.845398262e-16
-6.853035284e-16
-7.487724325e-16
-9.466905431e-16
-5.422090597e-16
-3.562958066e-16
-4.640877055e-16
-1.15452254e-18
-2.069202976e-16
-4.226038138e-16
-3.154417679e-16
-3.256941247e-16
-6.136835089e-16
-1.935250283e-16
-1.069962703e-15
-7.426408014e-16
-3.026598808e-16
3.241687418e-16
-2.031626651e-16
3.225497159e-16
1.083910125e-16
-1.817243882e-16
-3.494133525e-16
-5.471131769e-16
-4.063225026e-16
-4.569501118e-16
-7.77868131e-16
-7.663707083e-16
-7.28435289e-16
4.693933141e-17
3.701352313e-17
1.366247175e-16
-9.496380763e-17
-3.508739802e-16
-9.295751325e-16
-5.769001265e-16
-1.26649878e-15
-5.987945231e-16
-6.238470256e-16
-1.171159198e-15
-1.213677516e-15
-3.906159566e-16
-1.716108154e-16
-4.980350375e-16
-1.754453517e-16
-4.836005646e-17
-4.204905252e-16
-1.226379674e-15
-7.738453245e-16
-6.588033923e-16
-9.063496823e-16
-1.060513114e-15
-1.315596915e-15
-1.17748353e-15
-9.917134693e-16
-3.309811544e-16
-1.268436609e-16
-3.239342977e-17
-2.096627678e-16
-2.427735422e-16
-4.845532271e-16
-4.247306153e-16
-4.732290426e-16
-6.136770143e-16
-9.746309855e-16
-8.765001705e-16
-1.196134177e-15
-1.347487772e-15
-1.619112103e-15
-1.45008741e-15
1.319452701e-16
3.213823636e-16
-2.152257759e-17
-1.098787851e-16
-1.440544889e-16
1.364323616e-16
-2.966299075e-16
-5.956347677e-16
-4.636421795e-16
-8.206180674e-16
-1.256824342e-15
-1.754872137e-15
-9.995049162e-16
-1.694193309e-15
-1.806504583e-15
-1.118107621e-15
8.645037418e-17
2.8091525e-16
1.053475872e-16
-2.492541628e-16
-2.129380916e-16
-3.851256371e-16
-4.093531975e-16
-8.66603639e-16
-1.191526774e-15
-1.089132463e-15
-1.245472428e-15
-1.220302532e-15
-9.890854818e-16
-1.259375254e-15
-1.715374631e-15
-8.658795736e-16
-1.596459979e-15
3.835398146e-16
5.561003642e-16
-2.915139974e-16
-1.374932144e-16
-1.67848322e-16
-3.523065859e-16
-3.032069269e-16
-7.139090921e-16
-6.703011759e-16
-9.067841137e-16
-1.104901042e-15
-9.098924339e-16
-8.402696342e-16
-1.254137405e-15
-1.098137554e-15
-1.214274254e-15
-1.286143318e-15
-1.195407471e-15
6.497300202e-16
2.21806742e-17
4.72896826e-16
-6.580251359e-16
-5.753717073e-16
-3.211639768e-16
-5.609223076e-16
-2.21930381e-16
-9.07241377e-16
-9.118982827e-16
-5.970382664e-16
-2.072531095e-16
-1.018386873e-15
-7.316354726e-16
-1.425978277e-15
-1.124231038e-15
-8.879522447e-16
-1.581565985e-15
-1.58834866e-15
-2.95999642e-16
-5.278307879e-16
-4.41854405e-16
-5.652657288e-16
-6.355560023e-16
-7.180470383e-16
-6.740646356e-16
-6.137788044e-16
-6.762026266e-16
-9.51988409e-16
-4.819812984e-16
-9.995658022e-16
-4.770735975e-16
-6.612462542e-16
-6.842934731e-16
1.727210974e-16
-1.455393511e-16
-1.235182406e-16
1.406223271e-17
-1.21853725e-16
-7.768288734e-16
5.540842487e-16
1.521053509e-16
-3.956042378e-16
-1.303162159e-16
-3.286594232e-16
-3.287687567e-16
-1.840120256e-16
1.290976717e-16
5.54123868e-17
-3.287268564e-17
-2.255413714e-16
-5.410327255e-16
-7.643245445e-16
-5.94099182e-16
-8.823802606e-16
-3.027103629e-16
3.003370829e-16
2.190769116e-16
2.367691088e-18
-5.209218847e-16
-7.099554551e-16
-6.591095685e-16
-5.255541766e-16
-7.919297353e-16
-9.590085639e-17
-6.988351458e-17
8.557099953e-17
1.312764841e-16
-2.636312187e-16
-8.948692852e-16
-1.032475798e-15
-5.863572376e-16
-9.143601903e-16
-4.335207106e-16
-3.304754302e-16
-8.43358556e-18
-3.997823396e-16
-4.290189741e-16
-5.140045993e-16
-7.019676929e-16
-5.398482453e-16
-6.526272567e-16
-4.700284662e-16
-7.003504723e-16
-5.473539296e-16
-3.259207407e-16
-8.619307723e-17
-3.091493884e-16
-1.837906639e-16
-5.30874658e-16
-2.523620413e-16
-4.387493797e-16
-2.688040209e-16
-5.146832046e-16
-1.037235261e-15
-6.710260723e-16
-7.298516761e-16
-4.433452157e-16
-6.521551769e-17
-3.591358625e-16
7.907774339e-17
-7.359208823e-17
-4.869161247e-16
-4.050130989e-16
-4.532978729e-16
-3.506817528e-16
-5.056562434e-16
-9.035069321e-16
-3.10899446e-16
-1.217487729e-15
-9.265561282e-17
-1.909438319e-16
3.002076343e-17
2.646989534e-16
8.257139475e-17
-4.013602494e-16
-9.135655154e-16
-6.478763541e-16
-5.919531031e-16
-6.946065651e-16
-5.691336034e-16
-4.972350305e-16
-8.116288769e-16
-7.894568867e-16
-3.724103149e-16
-3.498735476e-16
-2.360073199e-16
-7.034244508e-16
1.618796136e-16
-6.255621172e-16
-8.303507716e-16
-8.888898397e-16
-6.434350537e-16
-9.605476795e-16
-1.151546519e-15
-1.178510675e-15
-1.412232025e-15
-7.930915841e-16
-1.28859175e-15
-7.006525244e-16
5.308000152e-17
-7.264597941e-17
1.048815608e-16
-6.103673739e-17
-2.640942167e-18
-6.848187225e-16
-1.873906824e-16
-2.716742227e-16
-7.225140594e-16
-1.136802397e-15
-1.306689683e-15
-1.199280875e-15
-1.263028078e-15
-1.254083085e-15
-1.615350662e-15
-2.06250974e-16
2.892733758e-16
1.147621811e-16
6.592806162e-17
1.178520925e-16
-2.462539406e-17
-9.827990556e-18
-3.549402974e-16
-5.479160798e-16
-8.770052225e-16
-1.245828751e-15
-1.427953789e-15
-1.084139414e-15
-1.17253082e-15
-1.618148992e-15
-1.188575446e-15
-6.832899652e-16
-1.278551718e-16
1.601146966e-16
6.225042623e-17
-1.612459704e-16
-1.580189107e-16
-1.235656843e-16
-4.462568076e-16
-5.280888849e-16
-8.091555331e-16
-1.215719252e-15
-9.401827441e-16
-1.065807031e-15
-8.560621689e-16
-1.538306932e-15
-1.218994758e-15
-1.25591916e-15
-1.375923366e-15
-1.375484881e-15
2.828651819e-16
-2.056170457e-16
-4.863002262e-16
-8.837397335e-16
-4.355744413e-16
-5.184901374e-16
-2.910503384e-16
-1.813524304e-16
3.596526253e-17
-7.326673481e-16
-6.625661099e-16
-9.061351562e-16
-8.720249392e-16
-8.963404881e-16
-1.123550931e-15
-1.333953881e-15
-1.30495327e-15
-1.321523276e-15
-7.185620192e-16
5.019259613e-16
2.99539412e-16
7.582939456e-16
-2.439970482e-16
-1.874106765e-16
-1.126251937e-16
-5.771527809e-16
-3.994979215e-16
-7.097905165e-16
-7.482269414e-16
-3.245725128e-16
-1.200056364e-15
-5.768850528e-16
-1.364666188e-15
-6.912871811e-16
-1.219810457e-15
-1.179091669e-15
-9.64336469e-16
-1.168980024e-15
-1.2478329e-15
-6.786257569e-16
-3.599706803e-16
-2.076643665e-16
-4.565278567e-16
-2.967353415e-16
-1.839802402e-16
-7.039329633e-16
-7.505609783e-16
-8.38398707e-16
-9.655614067e-16
-6.963036733e-16
-6.89494778e-16
-1.137434323e-15
-7.942762418e-16
-5.856276897e-16
3.098644455e-18
-8.062130082e-16
-7.106912486e-16
-5.703154916e-16
-4.035469309e-16
-8.39192181e-16
2.760587687e-16
4.122413215e-18
-3.446056935e-16
-3.519742836e-16
4.034267928e-17
-1.46551589e-16
-3.793609366e-16
5.865310123e-16
2.059134001e-16
8.205042121e-17
-5.759719662e-16
-5.480414405e-16
-4.535203356e-16
-3.340924882e-16
-3.972775075e-16
5.589504271e-17
1.620260853e-16
4.122252271e-17
1.704367452e-16
-4.394281139e-16
-4.598135985e-16
-5.006818853e-16
-6.712837157e-16
-9.100361053e-16
4.043628528e-17
7.131820584e-17
2.741444815e-16
3.468195721e-17
-3.447219943e-16
-6.259097469e-16
-1.067584032e-15
-5.47831056e-16
-8.586927603e-16
-5.261431478e-16
-3.841204968e-16
3.054846508e-16
-4.751564806e-16
-7.842632547e-17
-4.134154862e-16
-5.529347255e-16
-7.633586192e-16
-3.747453608e-16
-9.154615227e-16
-9.701158806e-16
-1.032129482e-15
2.047422642e-16
-2.255756465e-16
-6.800694806e-17
-4.768998508e-16
-5.598102843e-16
-4.330914268e-16
-5.63161136e-16
-6.326214206e-16
-7.673280786e-16
-7.304932595e-16
-6.023485097e-16
-6.417907257e-17
-4.33486484e-16
-4.640872198e-16
-2.484576426e-16
-6.20130388e-17
-6.288306e-17
-3.634183505e-16
-2.625068126e-16
-6.23911666e-16
1.222747827e-17
-1.022245869e-15
-9.254483043e-16
-8.240552696e-16
-1.040045764e-15
-9.748701776e-17
2.165536447e-16
-6.752562363e-17
-9.034516711e-17
-3.117980974e-16
-5.775913863e-17
-4.708446002e-16
-7.662834981e-16
-5.465805594e-16
-4.610572034e-16
-6.661459843e-16
-6.852006642e-16
-8.811091475e-16
-1.378492756e-15
-3.616039569e-18
-4.023550042e-16
-3.669947867e-16
1.173715583e-16
4.428907687e-16
-5.924450927e-17
-5.125258833e-16
-8.90032544e-16
-6.884347862e-16
-5.706507056e-16
-9.47743773e-16
-8.408687925e-16
-6.160418837e-16
-9.488457169e-16
-1.341867274e-15
-4.953086784e-16
-4.479356617e-16
-5.082372542e-17
-1.835187192e-17
-2.107325907e-16
-5.752991611e-16
-6.841109452e-16
-6.72412229e-16
-9.217764054e-16
-6.953429411e-16
-9.180389396e-16
-1.076952354e-15
-1.341757619e-15
-1.075518473e-15
-9.933795254e-16
-1.631674641e-15
-5.832086807e-16
-1.181421024e-16
4.539745035e-17
-1.35523761e-17
4.351098242e-17
-1.858398723e-16
-2.999428928e-16
-4.349607604e-16
-1.275957878e-16
-5.81980115e-16
-9.274497792e-16
-1.303892299e-15
-1.347674042e-15
-1.33677881e-15
-9.116675269e-16
-1.240149554e-15
-1.096375967e-15
-1.501632785e-16
1.242468082e-16
3.41196281e-17
1.959638009e-17
2.483118121e-16
2.893216201e-16
1.314193787e-17
-2.058220335e-16
-6.009668673e-16
-1.019021368e-15
-9.11046838e-16
-1.227288292e-15
-1.040092924e-15
-9.34235592e-16
-1.144972544e-15
-1.271622038e-15
-1.346115983e-15
-6.9323313e-16
-6.85604866e-16
-3.217968532e-16
-2.267996789e-16
-9.842469193e-17
-1.752170567e-16
1.3297883e-16
8.33212743e-17
-3.247745122e-16
-2.399966856e-16
-9.626686716e-16
-9.075378421e-16
-1.391865631e-15
-9.117432201e-16
-1.223902475e-15
-1.175032282e-15
-1.0414959e-15
-1.250075809e-15
-1.285441355e-15
-1.600564272e-15
1.216583339e-17
1.107770844e-16
-5.215582081e-16
-9.825410288e-16
-6.534862712e-16
-7.185938181e-16