/*--------------------------------*- C++ -*----------------------------------*\
| =========                 |                                                 |
| \\      /  F ield         | OpenFOAM: The Open Source CFD Toolbox           |
|  \\    /   O peration     | Version:  2212                                  |
|   \\  /    A nd           | Website:  www.openfoam.com                      |
|    \\/     M anipulation  |                                                 |
\*---------------------------------------------------------------------------*/
FoamFile
{
    version     2.0;
    format      ascii;
    arch        "LSB;label=32;scalar=64";
    class       surfaceScalarField;
    location    "0.4";
    object      phi;
}
// * * * * * * * * * * * * * * * * * * * * * * * * * * * * * * * * * * * * * //

dimensions      [0 3 -1 0 0 0 0];

oriented        oriented;

internalField   nonuniform List<scalar> 
124950
(
0.0025
3.574099765e-19
6.84239076e-19
0.0025
-1.509216314e-21
1.223687489e-19
0.0025
-5.648125861e-20
-7.37161122e-20
0.0025
-5.345777737e-19
-6.199667032e-19
0.0025
-5.022560944e-19
-1.646486883e-19
0.0025
-4.014454048e-19
-3.778966014e-19
0.0025
-7.537220546e-19
-4.01808679e-19
0.0025
-1.830203028e-19
2.124299226e-20
0.0025
-1.980500313e-19
-1.583313404e-19
0.0025
1.537675768e-19
-3.077148921e-19
0.0025
-1.037990936e-18
-6.448879348e-19
0.0025
-9.319610876e-19
-5.303251562e-19
0.0025
-8.400041508e-19
-1.376203046e-20
0.0025
-1.232585561e-18
-6.765851437e-19
0.0025
-6.874876336e-19
-4.187614772e-19
0.0025
-3.564558057e-19
-5.424644151e-19
0.0025
-1.95810787e-19
2.629427921e-19
0.0025
7.537690623e-20
-7.970667888e-20
0.0025
1.146883325e-19
-1.597850531e-19
0.0025
-4.868220157e-20
-3.356893725e-19
0.0025
-2.012079566e-18
-1.598940901e-18
0.0025
-1.22058969e-18
-8.163833403e-19
0.0025
-9.829775786e-19
-2.599196583e-19
0.0025
-1.320307385e-18
-6.682370026e-19
0.0025
-7.857662657e-19
-3.632249322e-19
0.0025
-1.315632016e-18
-6.389263145e-19
0.0025
-8.755542961e-19
3.559126637e-19
0.0025
-2.130852529e-19
-1.484721727e-19
0.0025
-1.649967856e-19
3.50768208e-20
0.0025
-1.29578937e-19
-1.789784699e-19
0.0025
-2.795932096e-19
4.203416759e-19
0.0025
1.276167257e-19
4.804737945e-19
0.0025
2.646922462e-19
-5.767886071e-20
0.0025
1.473035013e-19
1.231449735e-19
0.0025
5.713682049e-19
1.969196502e-19
0.0025
-2.101568215e-18
-2.132633822e-18
0.0025
-2.199138305e-18
-1.196394455e-18
0.0025
-1.336792259e-18
-1.202640453e-18
0.0025
-1.467071621e-18
-5.872316679e-19
0.0025
-8.62924473e-19
-4.60798143e-19
0.0025
-1.313390057e-18
-5.77971109e-19
0.0025
-1.280302702e-18
-1.825761589e-19
0.0025
-7.905729968e-19
-3.783189834e-19
0.0025
-1.078951034e-18
-3.325862595e-19
0.0025
-7.574901713e-19
-5.590336915e-19
0.0025
-8.056558738e-19
2.405403663e-19
0.0025
-3.144722134e-19
-1.386631337e-20
0.0025
-4.095335461e-19
2.742201018e-19
0.0025
1.2191603e-19
1.361661786e-19
0.0025
1.974257877e-19
-2.177121759e-19
0.0025
2.35147413e-19
6.338965811e-19
0.0025
-2.589135953e-19
7.599202163e-20
0.0025
-3.104581687e-19
8.82726584e-20
0.0025
4.542639304e-19
1.783109213e-19
0.0025
3.977100611e-19
1.199712377e-19
0.0025
3.519781403e-19
2.642968921e-19
0.0025
-2.019815354e-18
-2.734630482e-18
0.0025
-2.228409244e-18
-1.205870247e-18
0.0025
-7.747341701e-19
-1.403427431e-18
0.0025
-1.214313228e-18
-3.901937693e-19
0.0025
-1.313747945e-18
-1.104012681e-18
0.0025
-1.334056106e-18
-7.185539997e-19
0.0025
-1.327944063e-18
-2.764786822e-19
0.0025
-1.145697492e-18
-6.09135073e-19
0.0025
-1.346323811e-18
-9.170696531e-19
0.0025
-1.214604477e-18
-6.803666972e-19
0.0025
-1.12399652e-18
-1.556274801e-19
0.0025
-7.312309067e-19
-1.205333198e-20
0.0025
-9.343709565e-19
-2.731049379e-20
0.0025
-4.450285039e-19
-4.006630155e-19
0.0025
-6.402114011e-19
-5.351777214e-19
0.0025
-2.43595408e-19
7.074137925e-19
0.0025
-4.596733296e-19
2.974224335e-19
0.0025
-2.179511757e-19
2.661476042e-19
0.0025
-1.286390993e-19
8.232282845e-20
0.0025
1.465039304e-19
-1.133824085e-20
0.0025
2.754938591e-19
3.731391021e-20
0.0025
-4.053897847e-19
1.694379709e-19
0.0025
-1.956316606e-19
3.910981755e-19
0.0025
-3.583525969e-20
2.391406903e-19
0.0025
2.834880882e-19
1.038057908e-19
0.0025
2.544448663e-19
2.969002546e-20
0.0025
8.809540571e-20
2.03865587e-19
0.0025
3.615238169e-19
-2.429536008e-19
0.0025
-1.952374094e-18
-2.632117644e-18
0.0025
-1.993827559e-18
-1.524176639e-18
0.0025
-1.908582978e-19
-1.401304893e-18
0.0025
-1.249545735e-18
-2.584980269e-19
0.0025
-1.222208784e-18
-1.299517556e-18
0.0025
-9.79137592e-19
-1.048765725e-18
0.0025
-1.132837795e-18
-7.678168682e-19
0.0025
-1.494998823e-18
-6.537680269e-19
0.0025
-1.232901756e-18
-9.951392988e-19
0.0025
-1.397066515e-18
-8.456235893e-19
0.0025
-1.150997568e-18
-4.611410872e-19
0.0025
-1.317282939e-18
-3.20837111e-19
0.0025
-1.25960693e-18
-5.860507921e-19
0.0025
-7.667045966e-19
-9.217805736e-19
0.0025
-1.337018097e-18
-7.867784471e-19
0.0025
-8.16882174e-19
4.654605892e-19
0.0025
-4.116169903e-19
1.630701328e-19
0.0025
-7.311937557e-19
2.536073785e-19
0.0025
-1.82282534e-19
7.644666088e-21
0.0025
-3.632904973e-19
-2.880675267e-19
0.0025
-4.463166367e-19
-3.460305261e-19
0.0025
-2.865052895e-19
4.596704061e-19
0.0025
-2.324228688e-19
3.949150801e-19
0.0025
-4.121760039e-19
2.552266613e-19
0.0025
3.34257119e-21
3.142532264e-20
0.0025
-4.154864124e-19
-1.728454914e-19
0.0025
7.095218768e-20
-4.658098664e-20
0.0025
1.307832808e-19
-2.80770221e-19
0.0025
-5.729085831e-20
8.107503872e-19
0.0025
3.047534039e-19
4.59198567e-19
0.0025
1.171849163e-19
3.576938879e-19
0.0025
-1.12023971e-19
-1.655748531e-19
0.0025
-2.580185632e-19
-1.226624269e-19
0.0025
2.875945554e-19
2.715829933e-19
0.0025
1.460077333e-19
-1.144215103e-19
0.0025
2.791559276e-19
-8.251234575e-20
0.0025
-9.947796203e-19
-1.61732049e-18
0.0025
-1.399646826e-18
-1.091518277e-18
0.0025
-6.704744941e-20
-1.946128553e-18
0.0025
-1.400647882e-18
-5.391290505e-19
0.0025
-5.33108008e-19
-1.216258487e-18
0.0025
-8.908821435e-19
-1.440561596e-18
0.0025
-8.373205678e-19
-6.918593386e-19
0.0025
-1.411317409e-18
-8.306316516e-19
0.0025
-1.252396825e-18
-1.039241154e-18
0.0025
-6.779830112e-19
-9.61712186e-19
0.0025
-1.543051812e-18
-7.824292108e-19
0.0025
-1.270874826e-18
-3.43449698e-19
0.0025
-1.326016116e-18
-7.70031951e-19
0.0025
-9.452453122e-19
-9.008044255e-19
0.0025
-1.242243796e-18
-8.611347065e-19
0.0025
-1.383809363e-18
-1.170129971e-19
0.0025
-5.600049251e-19
1.862148933e-20
0.0025
-8.3863895e-19
2.758149773e-20
0.0025
-4.676876286e-19
-1.71867589e-19
0.0025
-5.867175698e-19
-5.213328821e-19
0.0025
-9.914331002e-19
-7.54392371e-19
0.0025
-5.403208534e-19
6.792605573e-19
0.0025
-4.642124308e-19
2.407418188e-19
0.0025
-4.336138812e-19
2.387259281e-19
0.0025
-6.229474971e-19
-3.018849273e-19
0.0025
-7.082630563e-19
-1.771013721e-19
0.0025
-2.249850159e-20
-1.510922507e-19
0.0025
-6.627120411e-19
-7.678685222e-19
0.0025
-9.415821061e-20
5.846868283e-19
0.0025
-8.288454035e-20
2.776935906e-19
0.0025
-2.649678952e-19
3.059463339e-19
0.0025
-5.038463233e-19
-1.630882402e-19
0.0025
-4.356646937e-19
-6.735614116e-20
0.0025
-1.113929549e-19
-2.944083194e-19
0.0025
-1.863482222e-19
-1.096135671e-19
0.0025
8.711098362e-20
-6.607412296e-19
0.0025
1.79922527e-19
8.071284786e-19
0.0025
1.379097171e-19
-2.108472613e-19
0.0025
-4.793206117e-19
-2.630330662e-19
0.0025
-6.065981258e-19
-3.65523061e-19
0.0025
-3.905529651e-19
-8.142967009e-20
0.0025
-1.604322895e-19
-2.258000161e-19
0.0025
-1.681054967e-19
-5.254724953e-19
0.0025
-2.110828823e-20
1.9793647e-19
0.0025
3.790587612e-19
-2.598565453e-19
0.0025
-5.945362321e-19
-1.522766729e-18
0.0025
-3.745362729e-19
-7.335968958e-19
0.0025
-3.312974321e-19
-1.940562258e-18
0.0025
-1.101109605e-18
-8.472411543e-19
0.0025
-5.622073672e-19
-1.174935742e-18
0.0025
-2.606931468e-19
-1.333898622e-18
0.0025
-1.263162472e-18
-6.913747095e-19
0.0025
-1.167258242e-18
-8.530035634e-19
0.0025
-7.339533063e-19
-1.162596228e-18
0.0025
-1.198790479e-19
-1.212413632e-18
0.0025
-1.373986947e-18
-5.970757068e-19
0.0025
-1.021807531e-18
-3.628511695e-19
0.0025
-1.015595339e-18
-6.601303921e-19
0.0025
-7.380026289e-19
-1.076032211e-18
0.0025
-7.603826388e-19
-8.719057572e-19
0.0025
-1.628081223e-18
-6.889409711e-19
0.0025
-1.143400582e-18
-4.636998505e-19
0.0025
-1.058437693e-18
-2.431918537e-19
0.0025
-6.872921339e-19
-3.86130205e-19
0.0025
-8.147663286e-19
-6.57546428e-19
0.0025
-1.052926675e-18
-8.642351987e-19
0.0025
-6.473036313e-19
6.460192696e-19
0.0025
-6.146179226e-19
1.132986978e-19
0.0025
-7.656675462e-19
7.687965459e-20
0.0025
-7.255667723e-19
-1.853843325e-19
0.0025
-4.568848288e-19
-2.957753703e-19
0.0025
-3.980090422e-19
-4.597946864e-19
0.0025
-7.656538674e-19
-4.672571674e-19
0.0025
-1.283985461e-19
5.328382731e-19
0.0025
-6.236001222e-19
3.925190822e-19
0.0025
-3.193007575e-19
1.645897913e-19
0.0025
-6.460612554e-19
-2.821720688e-20
0.0025
-5.001833671e-19
1.007420187e-19
0.0025
-1.603916528e-19
-2.865855837e-19
0.0025
-1.890734502e-19
-1.405619427e-19
0.0025
-9.743241499e-20
-6.578958516e-19
0.0025
4.654346347e-19
6.554603199e-19
0.0025
6.242595973e-20
1.784996781e-19
0.0025
-3.237538104e-19
2.931431523e-19
0.0025
-4.771813665e-19
7.682300163e-20
0.0025
-3.582660932e-19
-1.346963361e-19
0.0025
-2.261643612e-19
-1.923570292e-20
0.0025
-1.728793746e-19
-3.375562442e-19
0.0025
-1.152523294e-20
-2.584295817e-19
0.0025
3.859261912e-19
-3.437468363e-19
0.0025
-4.723747705e-19
4.463984426e-19
0.0025
-3.763814076e-20
-1.601045118e-19
0.0025
-1.734499221e-19
-2.191669964e-19
0.0025
-4.19571913e-19
6.529402768e-20
0.0025
-1.412508585e-19
1.312841491e-20
0.0025
-6.516493247e-20
-1.044416646e-19
0.0025
-9.920537842e-20
-9.528445875e-20
0.0025
1.535944392e-19
-3.699979722e-19
0.0025
-5.355114164e-19
-2.708949806e-19
0.0025
6.064792965e-19
2.217934225e-20
0.0025
-7.673898633e-19
-1.850998952e-18
0.0025
1.217113298e-19
-7.303525432e-19
0.0025
-2.293115359e-19
-1.455018228e-18
0.0025
-9.152885343e-19
-1.329349868e-18
0.0025
-4.33179679e-19
-8.608959483e-19
0.0025
8.228611167e-20
-1.464665494e-18
0.0025
-1.318959211e-18
-7.35895173e-19
0.0025
-8.354242309e-19
-8.825754748e-19
0.0025
-3.574854247e-19
-1.503200129e-18
0.0025
1.626490374e-20
-1.092510931e-18
0.0025
-1.279487264e-18
-3.237924547e-19
0.0025
-1.181338778e-18
-7.216015143e-19
0.0025
-1.027084355e-18
-1.087560927e-18
0.0025
-4.088829119e-19
-1.170983204e-18
0.0025
-4.530093471e-19
-1.232493912e-18
0.0025
-1.690617648e-18
-1.047330343e-18
0.0025
-1.426253728e-18
-6.655134222e-19
0.0025
-1.139116235e-18
-6.712727081e-19
0.0025
-8.855603924e-19
-7.749801201e-19
0.0025
-7.487933675e-19
-8.897552207e-19
0.0025
-7.348296491e-19
-1.011804514e-18
0.0025
-7.928372749e-19
3.099952979e-19
0.0025
-8.620043756e-19
-3.128409572e-20
0.0025
-9.640136635e-19
-1.740780439e-20
0.0025
-8.209961407e-19
-2.756930937e-19
0.0025
-3.916122667e-19
-4.936671081e-19
0.0025
-8.116724555e-19
-9.966068029e-19
0.0025
-8.405588047e-19
-3.69807599e-19
0.0025
-7.565800568e-19
8.101433132e-20
0.0025
-1.069422069e-18
9.136518169e-20
0.0025
-6.54007612e-19
1.339605654e-19
0.0025
-7.982308029e-19
1.314229993e-19
0.0025
-5.826998584e-19
-3.984523284e-19
0.0025
-2.349996085e-19
-3.28031471e-19
0.0025
-3.556222539e-19
-4.634679813e-19
0.0025
-9.349910907e-19
-1.092326812e-18
0.0025
1.993050351e-19
4.377905202e-19
0.0025
-3.108728248e-19
2.642042277e-19
0.0025
-6.89095233e-19
1.297732888e-19
0.0025
-5.92749404e-19
5.188590814e-20
0.0025
-3.445550976e-19
-1.256307458e-19
0.0025
-5.723098074e-19
2.182789951e-20
0.0025
-2.874784282e-19
-2.529082669e-19
0.0025
2.291863293e-19
-3.576735219e-19
0.0025
-4.740843733e-20
-3.259243899e-19
0.0025
-8.609960862e-20
2.372866419e-19
0.0025
2.453977861e-19
1.342380883e-19
0.0025
-4.546500516e-19
4.906734507e-20
0.0025
-3.752060144e-19
-6.732166425e-20
0.0025
-4.128253804e-19
5.705234792e-20
0.0025
-1.938294789e-19
-2.026863344e-19
0.0025
-2.708656532e-19
-1.09627583e-19
0.0025
-1.94566949e-19
-3.36364258e-19
0.0025
-4.342080808e-20
-6.415526413e-19
0.0025
3.517276924e-19
-1.471223149e-19
0.0025
-3.89481311e-19
6.921914503e-19
0.0025
-1.480286242e-19
-5.651791639e-19
0.0025
-5.060226613e-19
-5.400779544e-19
0.0025
-2.50702342e-19
-1.332365838e-19
0.0025
-6.536335422e-19
2.410544036e-19
0.0025
5.607490573e-20
7.841672865e-20
0.0025
2.232877793e-21
-7.138559044e-19
0.0025
-5.371086019e-19
-6.11181327e-19
0.0025
-1.89766272e-19
1.758811022e-19
0.0025
-8.516644791e-20
-2.901948498e-19
0.0025
4.928625257e-20
-2.833345408e-19
0.0025
-9.415069643e-19
-1.409465479e-18
0.0025
-1.873455413e-19
-7.95676114e-19
0.0025
-2.679161304e-19
-1.209676704e-18
0.0025
-5.684775561e-19
-1.696784446e-18
0.0025
-2.236720997e-19
-9.943530847e-19
0.0025
-3.404018875e-19
-1.369163565e-18
0.0025
-1.278956031e-18
-9.095236913e-19
0.0025
-5.184525823e-19
-1.078569005e-18
0.0025
-3.666264968e-19
-1.377566044e-18
0.0025
4.673113577e-19
-9.435040237e-19
0.0025
-1.202701045e-18
-4.002874467e-19
0.0025
-1.008357205e-18
-8.006660141e-19
0.0025
-5.472050032e-19
-1.287446072e-18
0.0025
-2.23852785e-19
-1.241039109e-18
0.0025
-7.355973834e-19
-1.272047477e-18
0.0025
-1.265035255e-18
-7.581169539e-19
0.0025
-1.283746476e-18
-5.009266456e-19
0.0025
-9.534078751e-19
-8.972840454e-19
0.0025
-8.577490334e-19
-1.106558981e-18
0.0025
-6.41360343e-19
-1.105074776e-18
0.0025
-1.952526992e-19
-9.18225102e-19
0.0025
-9.186685902e-19
2.507739606e-19
0.0025
-9.943153706e-19
-4.729346598e-19
0.0025
-1.190998839e-18
-4.475971325e-19
0.0025
-8.957882204e-19
-6.461585417e-19
0.0025
-5.765008645e-19
-7.657357561e-19
0.0025
-5.881337486e-19
-9.953174967e-19
0.0025
-5.337628304e-19
-6.990746019e-19
0.0025
-1.690263718e-18
-5.550577092e-19
0.0025
-1.08777708e-18
-7.681670639e-20
0.0025
-9.273764208e-19
1.00138505e-19
0.0025
-1.062040148e-18
1.383167472e-19
0.0025
-4.451989992e-19
-6.265582493e-19
0.0025
-4.353460134e-19
-7.080297418e-19
0.0025
-4.519119994e-19
-6.436529977e-19
0.0025
-1.603176593e-18
-1.480642203e-18
0.0025
-5.881356906e-19
2.311825109e-19
0.0025
-6.241953679e-19
4.375193568e-19
0.0025
-7.750719351e-19
5.418690108e-21
0.0025
-7.37200826e-19
-3.045017489e-20
0.0025
-4.514833307e-19
-2.066070358e-19
0.0025
-5.54198117e-19
-2.428250772e-19
0.0025
-3.534037774e-19
-2.69738103e-19
0.0025
-1.274000734e-19
-4.759709637e-19
0.0025
-5.177446408e-19
-1.007182019e-18
0.0025
1.112880783e-19
1.68081817e-19
0.0025
-6.985013415e-20
2.000801286e-19
0.0025
-5.431461722e-19
1.808786165e-19
0.0025
-4.205466336e-19
1.810322973e-19
0.0025
-3.296490694e-19
-5.678929685e-21
0.0025
-3.888217878e-19
-1.553120396e-19
0.0025
-6.126101488e-19
-1.071606337e-19
0.0025
-2.924067879e-19
-5.499140511e-19
0.0025
9.769537899e-20
-3.400319122e-19
0.0025
-7.754065899e-20
-5.071802785e-19
0.0025
-8.138453173e-19
2.502854219e-19
0.0025
5.614834939e-20
-2.101250727e-20
0.0025
1.473018225e-19
2.55920726e-19
0.0025
-4.887413399e-20
-4.594024282e-20
0.0025
-4.699689341e-19
1.319245542e-19
0.0025
-2.503923936e-19
-6.202293083e-20
0.0025
-1.75421146e-19
-3.784779536e-19
0.0025
-4.101991779e-19
-2.326952732e-19
0.0025
-1.391817923e-19
-2.097423133e-19
0.0025
3.051996474e-19
-2.506134401e-19
0.0025
4.860473544e-20
-6.301935147e-19
0.0025
7.012803968e-19
9.728807723e-19
0.0025
-2.749946283e-19
-3.209626792e-19
0.0025
-2.705112448e-19
-1.597750474e-19
0.0025
6.211924932e-20
-2.020547748e-19
0.0025
-3.428614136e-19
1.293946626e-19
0.0025
-5.416463235e-19
-3.856779695e-19
0.0025
-4.770327608e-19
-5.957826149e-19
0.0025
-3.787211182e-20
-3.611272399e-19
0.0025
-3.515519647e-19
-3.541153616e-19
0.0025
-4.872259419e-19
-4.838379762e-19
0.0025
-3.048868525e-19
1.594956074e-19
0.0025
5.171894979e-19
-2.397003742e-19
0.0025
-6.415614875e-19
-2.319863769e-19
0.0025
-4.199238465e-19
-3.403457164e-19
0.0025
-6.041645319e-19
-1.088383193e-18
0.0025
-6.979036181e-19
-1.579516426e-18
0.0025
-8.361445837e-20
-6.12156456e-19
0.0025
-1.41102354e-19
-8.963259647e-19
0.0025
-1.31089141e-18
-1.077078625e-18
0.0025
-2.389822974e-19
-1.458329797e-18
0.0025
-2.395663355e-19
-1.038192859e-18
0.0025
7.663326743e-20
-1.177823623e-18
0.0025
-1.095200066e-18
-5.384488183e-19
0.0025
-7.565433909e-19
-7.630160992e-19
0.0025
-3.610395416e-19
-1.123179098e-18
0.0025
-5.089910795e-20
-1.128607964e-18
0.0025
-2.701518944e-19
-1.089799377e-18
0.0025
-1.05254658e-18
-5.536446173e-19
0.0025
-1.241350042e-18
-6.638638822e-19
0.0025
-9.172504254e-19
-1.396123019e-18
0.0025
-6.904366422e-19
-1.283768483e-18
0.0025
-6.004224077e-19
-9.53502124e-19
0.0025
9.385851637e-20
-1.199302431e-18
0.0025
-1.124346422e-18
2.290503308e-20
0.0025
-1.006655046e-18
-5.721125128e-19
0.0025
-1.119027459e-18
-6.363715331e-19
0.0025
-8.743029282e-19
-1.091811064e-18
0.0025
-7.56359225e-19
-1.038229029e-18
0.0025
-2.707006867e-19
-8.523703042e-19
0.0025
-2.068777124e-20
-6.164454918e-19
0.0025
-1.948797809e-18
-6.242545481e-19
0.0025
-9.564939329e-19
-7.06093165e-20
0.0025
-9.423165023e-19
-1.153009175e-19
0.0025
-1.064579072e-18
-3.747003672e-19
0.0025
-5.038086078e-19
-7.656549556e-19
0.0025
-7.531103516e-19
-1.215119857e-18
0.0025
-6.689178765e-19
-7.836959761e-19
0.0025
-9.870129835e-19
-1.194151156e-18
0.0025
-1.247173144e-18
1.962510818e-19
0.0025
-1.065134896e-18
2.342437861e-19
0.0025
-6.8268081e-19
-8.143055903e-20
0.0025
-8.576543149e-19
-9.163310719e-20
0.0025
-8.963032747e-19
-6.42766e-19
0.0025
-6.747661313e-19
-7.526799234e-19
0.0025
-3.804146017e-19
-3.420684594e-19
0.0025
-8.48237892e-19
-7.127335744e-19
0.0025
-4.699734966e-19
-1.51085685e-18
0.0025
-2.457058544e-19
4.157194976e-19
0.0025
-3.614845557e-19
6.71673603e-20
0.0025
-1.044117471e-18
-5.385859369e-20
0.0025
-8.556096014e-19
1.626592557e-19
0.0025
-7.175709275e-19
-7.822023382e-19
0.0025
-8.963912457e-19
-6.350223766e-19
0.0025
-1.087806688e-18
-6.681002463e-19
0.0025
-5.582372299e-19
-6.737182276e-19
0.0025
-9.854771123e-20
-4.205469338e-19
0.0025
-4.716746705e-19
-1.167096332e-18
0.0025
-7.164094241e-19
5.074228063e-20
0.0025
1.31622928e-19
2.951043946e-19
0.0025
-2.333974065e-20
5.015579315e-19
0.0025
-2.983722999e-19
6.406774293e-20
0.0025
-4.592569855e-19
-3.515279123e-20
0.0025
-4.841576187e-19
-2.169492822e-19
0.0025
-4.805619106e-19
-4.125308251e-20
0.0025
-4.904538019e-19
-3.238722445e-19
0.0025
-1.597973304e-19
-4.599638591e-19
0.0025
6.313852934e-20
-3.340629766e-19
0.0025
-1.291112722e-19
-8.539785201e-19
0.0025
1.503966752e-19
1.095779134e-18
0.0025
-3.299964712e-19
-6.759484607e-20
0.0025
-1.502541371e-19
-8.224481348e-20
0.0025
1.379831197e-19
8.926876358e-20
0.0025
-1.8582844e-19
2.179371522e-19
0.0025
-2.780540068e-19
-9.540024921e-20
0.0025
-2.393289343e-19
-2.707558515e-19
0.0025
-3.356987979e-19
-2.979814766e-19
0.0025
-3.037867928e-19
-1.463690009e-19
0.0025
-9.115081978e-20
-3.528314423e-19
0.0025
3.063563754e-19
-3.272532276e-19
0.0025
4.686319373e-19
-3.763643999e-19
0.0025
2.724266165e-19
4.799664826e-19
0.0025
1.094763175e-19
-1.221484131e-19
0.0025
3.324212644e-20
5.244927135e-19
0.0025
4.498909402e-19
-1.735704638e-19
0.0025
1.385266286e-19
4.233552168e-19
0.0025
-1.744807117e-19
-1.365949772e-19
0.0025
-5.898066987e-19
-2.701751361e-19
0.0025
-1.282002121e-19
-4.295868004e-19
0.0025
3.477789454e-19
1.777337041e-19
0.0025
-2.267936193e-19
-6.971776121e-22
0.0025
5.931767789e-20
-7.844127803e-20
0.0025
-4.285961472e-19
-7.553447342e-21
0.0025
7.473002397e-19
7.614695333e-20
0.0025
-4.198518508e-20
5.824448497e-19
0.0025
-4.495691566e-19
2.377581074e-19
0.0025
-4.47746836e-19
-2.745203115e-19
0.0025
-7.241038065e-19
-1.178219857e-18
0.0025
-5.198764594e-19
-3.451552386e-19
0.0025
-7.117986145e-20
-6.784557328e-19
0.0025
-1.132969384e-18
-6.907593939e-19
0.0025
-2.74412744e-19
-1.2395587e-18
0.0025
-8.649890948e-20
-5.842881986e-19
0.0025
-2.494624341e-19
-1.046497394e-18
0.0025
-1.099059657e-18
-7.410482998e-19
0.0025
-5.916422669e-19
-1.23652775e-18
0.0025
-4.143579147e-19
-1.248448673e-18
0.0025
-1.733058137e-19
-8.849297746e-19
0.0025
5.441324317e-20
-1.132221143e-18
0.0025
-9.696388642e-19
-4.917312349e-19
0.0025
-9.071356146e-19
-7.631286205e-19
0.0025
-8.267186574e-19
-1.107071951e-18
0.0025
-2.950911076e-19
-9.65549946e-19
0.0025
-2.705773208e-19
-1.024622807e-18
0.0025
3.156126796e-19
-1.323864885e-18
0.0025
-1.225713667e-18
-3.244386078e-19
0.0025
-8.03243611e-19
-4.114376499e-19
0.0025
-1.209678117e-18
-1.078885299e-18
0.0025
-6.517005612e-19
-1.1569862e-18
0.0025
-4.860736583e-19
-8.780707124e-19
0.0025
1.613576444e-19
-7.869044474e-19
0.0025
2.618586052e-21
-6.597216561e-19
0.0025
-1.690328622e-18
-1.798855967e-19
0.0025
-7.032216183e-19
1.484709077e-20
0.0025
-8.6264226e-19
-5.451782234e-19
0.0025
-9.611938492e-19
-7.882675452e-19
0.0025
-3.19998366e-19
-8.487890026e-19
0.0025
-8.120226276e-19
-1.021921921e-18
0.0025
-5.430773182e-19
-9.625548943e-19
0.0025
-4.013016983e-19
-8.590581113e-19
0.0025
-2.11121627e-18
1.538415703e-19
0.0025
-1.397779191e-18
-3.007861574e-19
0.0025
-9.135507117e-19
1.285070273e-20
0.0025
-6.362238731e-19
-1.951244764e-19
0.0025
-7.013745909e-19
-5.610190148e-19
0.0025
-5.477510685e-19
-9.385573875e-19
0.0025
-3.086946708e-19
-4.157566773e-19
0.0025
-8.309565062e-19
-8.475742633e-19
0.0025
-3.345513414e-19
-1.387051817e-18
0.0025
-6.915298997e-19
4.999368218e-19
0.0025
-6.854455062e-19
3.305437684e-19
0.0025
-1.140862356e-18
-1.852985288e-19
0.0025
-7.981664546e-19
-1.945006529e-20
0.0025
-1.079079776e-18
-7.679740173e-19
0.0025
-1.047654161e-18
-1.126444916e-18
0.0025
-1.035630807e-18
-8.111447397e-19
0.0025
-6.275713151e-19
-7.412864719e-19
0.0025
-4.113939302e-19
-7.656996214e-19
0.0025
-3.849538501e-19
-1.217294927e-18
0.0025
-3.225319251e-20
6.729785993e-20
0.0025
-4.873306208e-19
4.249853761e-19
0.0025
-5.240540494e-19
5.452594245e-19
0.0025
-2.472994877e-19
-1.061768955e-19
0.0025
-7.688701975e-19
-3.10010814e-19
0.0025
-7.805089503e-19
-4.816654899e-19
0.0025
-7.491625166e-19
-3.179897117e-19
0.0025
-5.759115937e-19
-4.693901772e-19
0.0025
-3.698979562e-19
-7.541164003e-19
0.0025
-7.890461207e-20
-4.965044538e-19
0.0025
2.290808572e-20
-4.895090814e-19
0.0025
-1.956000954e-19
6.790225669e-19
0.0025
-4.162097235e-19
-4.434464698e-20
0.0025
-1.450106354e-19
5.104586095e-20
0.0025
-8.163311591e-21
2.793805225e-19
0.0025
-5.471439699e-19
-4.486888114e-20
0.0025
-4.472148262e-19
3.290109093e-21
0.0025
-1.113843979e-19
1.600695486e-19
0.0025
-5.138221669e-19
-3.075093189e-19
0.0025
-2.706809341e-19
-1.048277949e-19
0.0025
4.028541831e-20
-4.635303837e-19
0.0025
5.904366074e-20
-3.936313773e-19
0.0025
3.227082402e-19
-6.479559898e-19
0.0025
5.460400244e-19
4.172491648e-19
0.0025
-3.871552618e-19
4.105706119e-19
0.0025
-2.325952514e-20
1.198042405e-19
0.0025
2.332726354e-20
-2.354174029e-19
0.0025
-1.823450928e-19
1.292400681e-20
0.0025
-3.872361234e-19
7.556024568e-21
0.0025
-3.343239647e-19
-1.510851307e-19
0.0025
-1.546754726e-19
-2.386239965e-19
0.0025
2.296806062e-20
-1.213893756e-19
0.0025
-4.896202338e-19
1.085647662e-19
0.0025
3.707838723e-19
-3.217239545e-19
0.0025
3.238281122e-19
-3.330398544e-19
0.0025
4.662307589e-19
-2.254799725e-20
0.0025
1.869190685e-19
4.656407606e-19
0.0025
-2.765381258e-19
-3.014390502e-19
0.0025
4.708410898e-19
1.89848537e-19
0.0025
-1.781823068e-19
1.863766112e-19
0.0025
5.835040732e-19
4.036731117e-20
0.0025
-4.630087099e-19
-4.015578126e-19
0.0025
-1.036163147e-19
-8.638633192e-20
0.0025
-3.80744479e-19
2.641381601e-19
0.0025
3.446574655e-19
-4.061892098e-19
0.0025
-1.107039212e-19
-6.699191053e-20
0.0025
-2.98030225e-19
1.61214158e-19
0.0025
-1.11273082e-20
7.532835909e-20
0.0025
-7.14022638e-20
-2.51009945e-19
0.0025
4.930682749e-19
2.048437353e-19
0.0025
3.363007085e-19
1.084497886e-18
0.0025
-3.224681495e-19
3.32266109e-19
0.0025
-3.252698421e-19
2.721077103e-19
0.0025
-5.775771433e-19
-1.940390672e-19
0.0025
-5.689012792e-19
2.914131804e-20
0.0025
-9.921119253e-21
-2.554032097e-19
0.0025
-5.244051111e-19
-1.493644237e-19
0.0025
-5.10192584e-20
-4.413327936e-19
0.0025
5.11298758e-20
5.481006074e-20
0.0025
-7.040555025e-20
-4.932260759e-19
0.0025
-4.782388282e-19
-7.873059325e-19
0.0025
-6.79712609e-19
-1.00900525e-18
0.0025
-4.779379063e-19
-1.253389006e-18
0.0025
-5.030082524e-19
-6.527216614e-19
0.0025
2.085662149e-19
-5.084189479e-19
0.0025
-6.100669173e-19
-2.591009084e-19
0.0025
-5.973168613e-19
-1.090254398e-18
0.0025
-4.475952782e-19
-1.085613466e-18
0.0025
-4.851681259e-19
-8.573985225e-19
0.0025
-2.795056246e-19
-1.068410461e-18
0.0025
4.542580682e-19
-9.049009428e-19
0.0025
-9.618332015e-19
-7.540687498e-19
0.0025
-7.461844277e-19
-4.582791212e-19
0.0025
-1.183832769e-18
-1.037875709e-18
0.0025
-5.240036429e-19
-1.092283833e-18
0.0025
-4.391267929e-19
-1.264163017e-18
0.0025
1.001000414e-19
-9.892239453e-19
0.0025
-4.853998684e-20
-7.576257053e-19
0.0025
-1.344183923e-18
9.124577375e-20
0.0025
-5.85283549e-19
-3.799601521e-19
0.0025
-9.283254697e-19
-7.090544459e-19
0.0025
-5.785710268e-19
-9.484922032e-19
0.0025
-3.97213331e-19
-7.104307772e-19
0.0025
-3.218973833e-19
-8.80347768e-19
0.0025
-4.322535217e-19
-8.098930102e-19
0.0025
3.07627781e-19
2.45074757e-21
0.0025
-2.106275345e-18
1.405886593e-19
0.0025
-1.202057156e-18
-3.407501094e-19
0.0025
-9.303123309e-19
-2.250333053e-19
0.0025
-5.09089383e-19
-3.832033039e-19
0.0025
-6.21827238e-19
-8.016654042e-19
0.0025
-4.364064211e-19
-9.008024543e-19
0.0025
-4.506783315e-19
-4.711272763e-19
0.0025
-3.345296897e-19
-7.474870094e-19
0.0025
-1.394758695e-19
-1.039196368e-18
0.0025
-1.133027543e-18
7.735273954e-19
0.0025
-1.231627345e-18
6.750754997e-20
0.0025
-1.143188254e-18
3.304157741e-20
0.0025
-7.448069171e-19
-2.126535635e-19
0.0025
-8.57489553e-19
-1.169558363e-19
0.0025
-5.792173258e-19
-8.119727325e-19
0.0025
-9.882004855e-20
-8.81868281e-19
0.0025
-6.716297732e-19
-5.625158788e-19
0.0025
-2.626759003e-19
-8.320165524e-19
0.0025
-1.754294626e-19
-1.22176369e-18
0.0025
1.582557817e-19
5.399757758e-19
0.0025
-8.39021932e-19
6.272110295e-19
0.0025
-9.318392321e-19
1.607938509e-19
0.0025
-3.971271959e-19
-1.558259543e-19
0.0025
-9.532505477e-19
-2.331002573e-19
0.0025
-7.710298097e-19
-6.520051045e-19
0.0025
-6.317212153e-19
-4.376912316e-19
0.0025
-4.546177188e-19
-6.842941379e-19
0.0025
-6.071850569e-19
-9.526887099e-19
0.0025
-2.867643407e-19
-9.086900632e-19
0.0025
-9.931054574e-20
-6.160158064e-19
0.0025
-2.43242357e-19
2.513737388e-21
0.0025
-3.640701316e-19
2.124372003e-19
0.0025
-2.188268618e-19
4.277136171e-19
0.0025
-2.79631111e-19
2.915365754e-19
0.0025
-4.386738627e-19
-1.102670347e-19
0.0025
-4.475796788e-19
-8.604464323e-20
0.0025
-2.158557088e-19
7.999933091e-20
0.0025
-2.694388559e-19
-2.340646472e-19
0.0025
-3.741253659e-19
-3.02989104e-19
0.0025
-2.228896109e-19
-5.677233975e-19
0.0025
3.152766954e-20
-3.314365903e-19
0.0025
7.222786308e-20
-6.307161107e-19
0.0025
1.772992259e-19
6.356286348e-19
0.0025
-9.017277672e-20
5.36366187e-19
0.0025
-1.584286624e-19
1.494314303e-19
0.0025
2.674773441e-20
-3.106280183e-20
0.0025
-2.360163306e-19
1.606437149e-20
0.0025
-3.705539872e-19
1.128010759e-19
0.0025
-2.647344514e-19
6.457631083e-20
0.0025
-2.737857041e-19
-4.892053975e-21
0.0025
-2.255132063e-19
-9.953709155e-20
0.0025
-2.599432969e-19
-1.309112228e-19
0.0025
2.704899219e-19
-2.572946264e-19
0.0025
4.211469184e-19
-2.948246962e-19
0.0025
5.46097646e-19
-4.11603885e-19
0.0025
4.832127538e-19
7.949416082e-19
0.0025
9.889770013e-20
1.616583e-19
0.0025
8.545439562e-20
1.189717204e-20
0.0025
-2.226481283e-19
-1.157100079e-19
0.0025
5.213040238e-20
2.397638608e-19
0.0025
-1.274465009e-19
-3.087086547e-20
0.0025
-1.549352241e-19
-2.8971027e-19
0.0025
-4.447016976e-19
1.394092353e-19
0.0025
-6.624614041e-20
-6.776339974e-20
0.0025
1.396118884e-19
1.404837891e-19
0.0025
-3.835494192e-19
-1.223008968e-19
0.0025
2.693799888e-19
-2.97930372e-19
0.0025
6.393826899e-19
-1.102627471e-19
0.0025
4.040717996e-19
1.07806262e-19
0.0025
-3.684065187e-19
-1.376448323e-19
0.0025
-2.712281936e-19
2.473426238e-19
0.0025
3.122397242e-19
1.275093947e-19
0.0025
1.78477089e-19
-2.294176775e-19
0.0025
-2.915654365e-19
-1.989716319e-19
0.0025
3.271116992e-19
2.620316917e-19
0.0025
1.326906739e-19
-3.926889671e-19
0.0025
-3.703330099e-19
-2.422470964e-19
0.0025
-5.603079926e-19
1.374963077e-19
0.0025
5.577131092e-19
6.64920578e-20
0.0025
-9.632042853e-21
3.509168023e-19
0.0025
1.298134827e-19
3.752620062e-19
0.0025
2.983249045e-19
-2.061110058e-19
0.0025
-3.623711861e-19
-5.276134298e-19
0.0025
-5.258844884e-20
7.576394347e-19
0.0025
5.083173238e-19
1.487520807e-18
0.0025
3.569557386e-19
7.378049134e-19
0.0025
-1.133174004e-19
5.766907277e-19
0.0025
-8.982702851e-20
5.71845236e-19
0.0025
-2.881539059e-19
2.957034915e-19
0.0025
1.069720964e-19
4.276946118e-19
0.0025
1.467072835e-19
3.780817273e-19
0.0025
-3.985967741e-19
-2.972948696e-20
0.0025
-7.210609572e-20
1.615828453e-19
0.0025
4.526896791e-20
-4.235882208e-20
0.0025
5.986964258e-20
-1.908663847e-19
0.0025
-7.099088298e-20
-3.159830239e-19
0.0025
-2.45228032e-19
-4.514338904e-19
0.0025
-3.797817406e-19
-2.11427944e-19
0.0025
3.32667984e-19
-3.552157992e-19
0.0025
-4.885434135e-19
-3.17508468e-19
0.0025
-1.023316829e-19
-7.733044642e-19
0.0025
-6.472273385e-19
-7.906968195e-19
0.0025
-2.155682116e-19
-6.876302723e-19
0.0025
-2.456927372e-19
-9.324972003e-19
0.0025
-1.679339709e-19
-8.349460847e-19
0.0025
-4.101192457e-19
-9.65168699e-19
0.0025
-9.620048468e-19
-6.796674921e-19
0.0025
-6.588479995e-19
-1.389320185e-18
0.0025
-4.923717632e-19
-7.209114325e-19
0.0025
-3.780738644e-19
-1.083412353e-18
0.0025
-1.175919019e-19
-1.027788154e-18
0.0025
-1.876140228e-19
-1.351041271e-18
0.0025
-1.192302483e-18
-1.480112843e-19
0.0025
-6.463305656e-19
-9.492759358e-19
0.0025
-1.155536389e-18
-5.737312832e-19
0.0025
-3.800810826e-19
-9.934374383e-19
0.0025
-6.262752942e-19
-9.786407842e-19
0.0025
-5.633451894e-20
-1.045656235e-18
0.0025
-2.807772905e-19
-8.204774373e-19
0.0025
5.331464361e-19
-7.013314266e-20
0.0025
-9.485421841e-19
4.272606056e-20
0.0025
-1.213900799e-18
-3.506603339e-19
0.0025
-6.95881191e-19
-3.23910551e-19
0.0025
-4.445476853e-19
-5.907583143e-19
0.0025