/*--------------------------------*- C++ -*----------------------------------*\
| =========                 |                                                 |
| \\      /  F ield         | OpenFOAM: The Open Source CFD Toolbox           |
|  \\    /   O peration     | Version:  2212                                  |
|   \\  /    A nd           | Website:  www.openfoam.com                      |
|    \\/     M anipulation  |                                                 |
\*---------------------------------------------------------------------------*/
FoamFile
{
    version     2.0;
    format      ascii;
    arch        "LSB;label=32;scalar=64";
    class       surfaceScalarField;
    location    "0.4";
    object      phiHbyA;
}
// * * * * * * * * * * * * * * * * * * * * * * * * * * * * * * * * * * * * * //

dimensions      [0 3 -1 0 0 0 0];

oriented        oriented;

internalField   nonuniform List<scalar> 
124950
(
0.0025
2.149660405e-19
1.584185263e-20
0.0025
1.188548078e-20
2.975337718e-20
0.0025
-1.204674449e-19
-2.540614787e-19
0.0025
-1.917871232e-19
-4.188505941e-19
0.0025
-4.635136209e-19
-3.025612943e-20
0.0025
-4.937094177e-19
-4.651369306e-19
0.0025
-7.355221029e-19
-5.123207119e-19
0.0025
-2.83926983e-19
-1.587207292e-20
0.0025
-1.188476957e-19
-2.723303922e-19
0.0025
1.81674126e-19
-3.450498978e-19
0.0025
-9.008955753e-19
-5.032725279e-19
0.0025
-8.414209838e-19
-4.610614588e-19
0.0025
-8.658773969e-19
-2.087528595e-19
0.0025
-1.023660931e-18
-5.223342578e-19
0.0025
-5.384148425e-19
-4.190087641e-19
0.0025
-2.282879669e-19
-6.09130139e-19
0.0025
-2.265756512e-19
2.429073299e-19
0.0025
-7.956858443e-21
-2.207808067e-19
0.0025
1.66815592e-19
-1.756320707e-19
0.0025
5.700560464e-22
-1.700907285e-19
0.0025
-1.888613382e-18
-1.522650296e-18
0.0025
-1.198506086e-18
-7.63653978e-19
0.0025
-9.347440568e-19
-3.490618616e-19
0.0025
-1.284840135e-18
-6.548354019e-19
0.0025
-7.514228382e-19
-3.771626395e-19
0.0025
-1.161011261e-18
-6.607213505e-19
0.0025
-9.448995482e-19
2.868062041e-19
0.0025
-2.280376328e-19
-3.08864144e-19
0.0025
-1.76068679e-19
-9.453778711e-20
0.0025
-6.488792153e-20
-4.203009307e-19
0.0025
-7.148610687e-20
2.698841411e-19
0.0025
-3.305656339e-20
2.026332572e-19
0.0025
4.459207211e-20
-1.745220617e-19
0.0025
9.843457735e-20
7.485614175e-21
0.0025
3.394941907e-19
-4.774682795e-20
0.0025
-2.06738625e-18
-1.825013058e-18
0.0025
-2.056160471e-18
-1.216921136e-18
0.0025
-1.310395568e-18
-1.165056144e-18
0.0025
-1.451897735e-18
-6.5272427e-19
0.0025
-9.588642335e-19
-6.536854433e-19
0.0025
-1.369657526e-18
-6.642216387e-19
0.0025
-1.247854957e-18
-7.097137849e-20
0.0025
-6.573557448e-19
-3.720784302e-19
0.0025
-1.024429346e-18
-3.804217603e-19
0.0025
-6.290968441e-19
-7.144006471e-19
0.0025
-6.254531334e-19
2.649081192e-19
0.0025
-2.902227383e-19
9.293799594e-20
0.0025
-1.572896453e-19
3.377165789e-20
0.0025
1.030061316e-23
3.774923541e-20
0.0025
4.041103356e-19
-2.049200392e-19
0.0025
2.334612879e-20
3.038194732e-19
0.0025
-2.310567389e-19
8.392686651e-20
0.0025
-1.853560755e-19
4.601561452e-20
0.0025
3.087499134e-19
3.275321167e-20
0.0025
3.189427869e-19
6.912889252e-20
0.0025
3.13138208e-19
2.560112603e-20
0.0025
-1.98808101e-18
-2.495896179e-18
0.0025
-2.062311813e-18
-1.141230592e-18
0.0025
-9.820735911e-19
-1.273524937e-18
0.0025
-1.324851861e-18
-6.058261097e-19
0.0025
-1.366116578e-18
-1.030911829e-18
0.0025
-1.271846752e-18
-8.085684105e-19
0.0025
-1.381729661e-18
-3.202948407e-19
0.0025
-1.108986242e-18
-6.497113272e-19
0.0025
-1.289952525e-18
-8.110791582e-19
0.0025
-1.078576688e-18
-7.934880114e-19
0.0025
-1.033887607e-18
-1.552983043e-21
0.0025
-6.566009704e-19
-1.534090941e-21
0.0025
-7.968750168e-19
-5.861612413e-20
0.0025
-3.739769454e-19
-4.309856051e-19
0.0025
-3.872708964e-19
-4.931668683e-19
0.0025
-2.986994807e-19
6.171299097e-19
0.0025
-3.947800645e-19
2.174704815e-19
0.0025
-3.804579619e-19
-4.222762367e-20
0.0025
5.567801751e-20
7.656317444e-20
0.0025
1.172554902e-19
-1.418128989e-19
0.0025
3.385943169e-19
3.183243584e-20
0.0025
-1.921915362e-19
1.380705945e-19
0.0025
-1.083917539e-19
3.117755975e-19
0.0025
-9.523582633e-20
-1.168998939e-21
0.0025
2.10537536e-19
-3.242174384e-20
0.0025
1.182610243e-19
1.096604981e-19
0.0025
1.401409494e-19
-7.447845324e-20
0.0025
2.816505735e-19
-2.348452242e-19
0.0025
-1.722967035e-18
-2.478908578e-18
0.0025
-1.892194127e-18
-1.263207654e-18
0.0025
-1.357853922e-19
-1.582089991e-18
0.0025
-1.175621183e-18
-3.732223804e-19
0.0025
-1.235880931e-18
-1.074939229e-18
0.0025
-1.090854333e-18
-1.017695469e-18
0.0025
-1.084035656e-18
-6.613919086e-19
0.0025
-1.283751653e-18
-6.547588745e-19
0.0025
-1.359362088e-18
-9.702819805e-19
0.0025
-1.220158779e-18
-7.362986114e-19
0.0025
-1.301611979e-18
-2.80905707e-19
0.0025
-1.147329648e-18
-2.377126976e-19
0.0025
-1.099195013e-18
-5.09538142e-19
0.0025
-7.398111558e-19
-9.812947499e-19
0.0025
-1.147845026e-18
-7.130775239e-19
0.0025
-7.58504902e-19
4.481807537e-19
0.0025
-4.928848911e-19
1.43329508e-19
0.0025
-6.868236851e-19
5.08743996e-20
0.0025
-2.162139428e-19
-7.257740699e-20
0.0025
-3.421384224e-19
-3.504443243e-19
0.0025
-2.978191629e-19
-4.126760311e-19
0.0025
-2.769156084e-19
4.374588255e-19
0.0025
-2.193421978e-19
3.548708514e-19
0.0025
-3.073750154e-19
9.185471822e-20
0.0025
-1.416093022e-20
-3.748136712e-20
0.0025
-2.943163313e-19
-1.600603041e-19
0.0025
1.849635929e-19
-6.789234986e-20
0.0025
1.779817323e-19
-3.053148236e-19
0.0025
-1.697355602e-19
4.331995172e-19
0.0025
1.715563816e-19
1.654761799e-19
0.0025
-9.974986066e-21
1.829846934e-19
0.0025
-1.058240429e-19
-1.284540547e-19
0.0025
-1.576207823e-19
-1.510756631e-19
0.0025
4.302700449e-20
1.635390862e-20
0.0025
2.211682325e-19
-7.490126854e-20
0.0025
2.308223352e-19
-2.602118252e-19
0.0025
-1.022345263e-18
-1.906395526e-18
0.0025
-1.474850136e-18
-1.00810819e-18
0.0025
9.215452341e-20
-1.790212603e-18
0.0025
-1.3150413e-18
-4.944060339e-19
0.0025
-6.47684496e-19
-1.221917901e-18
0.0025
-6.611794367e-19
-1.116305554e-18
0.0025
-8.082018172e-19
-6.749041277e-19
0.0025
-1.206458348e-18
-5.98761733e-19
0.0025
-1.258777381e-18
-1.080755618e-18
0.0025
-8.623128667e-19
-9.088720754e-19
0.0025
-1.581415009e-18
-7.40137309e-19
0.0025
-1.286294518e-18
-4.110611573e-19
0.0025
-1.181389558e-18
-5.930243037e-19
0.0025
-9.195553155e-19
-9.551161928e-19
0.0025
-1.228826922e-18
-8.426639966e-19
0.0025
-1.104441453e-18
1.172485905e-19
0.0025
-6.55933388e-19
-9.132430599e-20
0.0025
-8.617558678e-19
-3.406510312e-20
0.0025
-4.454349621e-19
-2.687353819e-19
0.0025
-5.971777455e-19
-6.080211582e-19
0.0025
-9.626851536e-19
-6.676975928e-19
0.0025
-4.911450075e-19
5.909505326e-19
0.0025
-4.769871591e-19
2.089315977e-19
0.0025
-5.269513785e-19
1.38658453e-19
0.0025
-4.759119227e-19
-2.306997504e-19
0.0025
-5.907872151e-19
-3.211030984e-19
0.0025
-8.297135539e-20
-1.416278369e-19
0.0025
-4.382574817e-19
-6.5677709e-19
0.0025
-4.210452836e-20
6.554986944e-19
0.0025
1.942719349e-20
3.463041817e-19
0.0025
-1.432324044e-19
2.233494048e-19
0.0025
-3.182703209e-19
-1.672740605e-19
0.0025
-3.884473256e-19
-1.184612376e-19
0.0025
-5.411315769e-20
-2.288395562e-19
0.0025
1.454330942e-20
-1.1043271e-20
0.0025
2.576241599e-19
-5.518362243e-19
0.0025
-3.713456608e-20
4.775639596e-19
0.0025
7.39235415e-20
-7.495263319e-20
0.0025
-1.829006188e-19
-9.135043246e-20
0.0025
-3.873662e-19
-1.41859354e-19
0.0025
-1.978101283e-19
-1.723574686e-19
0.0025
-1.225490709e-19
-1.69791673e-19
0.0025
-1.014356198e-19
-4.24295844e-19
0.0025
1.157086206e-19
3.28477179e-20
0.0025
3.424179201e-19
-5.448877616e-20
0.0025
-5.834980842e-19
-1.626841227e-18
0.0025
-7.145071664e-19
-8.832801533e-19
0.0025
-2.208647744e-19
-1.810875265e-18
0.0025
-1.10770333e-18
-6.937493152e-19
0.0025
-5.671159427e-19
-1.216337614e-18
0.0025
-2.985052405e-19
-1.239668355e-18
0.0025
-1.002127834e-18
-6.268252132e-19
0.0025
-1.062333342e-18
-7.692064019e-19
0.0025
-7.590732185e-19
-1.131584982e-18
0.0025
-1.824759516e-19
-1.072691782e-18
0.0025
-1.532107606e-18
-6.599908376e-19
0.0025
-1.072500967e-18
-5.091660803e-19
0.0025
-1.188921107e-18
-7.64582024e-19
0.0025
-8.073203532e-19
-9.940606609e-19
0.0025
-9.152210108e-19
-9.059546219e-19
0.0025
-1.439515224e-18
-4.566751692e-19
0.0025
-9.920931391e-19
-4.271429005e-19
0.0025
-9.69688976e-19
-1.128853646e-19
0.0025
-5.89366734e-19
-3.897993306e-19
0.0025
-7.384336902e-19
-7.058978156e-19
0.0025
-1.106412249e-18
-7.999558778e-19
0.0025
-7.173814965e-19
5.527485957e-19
0.0025
-6.633973344e-19
1.318839987e-19
0.0025
-7.330649129e-19
1.674918168e-20
0.0025
-7.471675621e-19
-3.244353674e-19
0.0025
-4.768154043e-19
-3.035817132e-19
0.0025
-3.295872848e-19
-4.277990129e-19
0.0025
-7.912876173e-19
-7.279066431e-19
0.0025
-1.178393487e-19
5.284441826e-19
0.0025
-4.909965423e-19
3.644539621e-19
0.0025
-3.283303846e-19
2.05369088e-19
0.0025
-5.985519809e-19
-1.096036539e-19
0.0025
-5.057194167e-19
-1.949987665e-19
0.0025
-1.946548704e-19
-2.983517865e-19
0.0025
-2.707769206e-19
-1.477904807e-19
0.0025
8.979921868e-21
-7.150334746e-19
0.0025
3.76894051e-19
6.599083311e-19
0.0025
4.801510556e-20
9.103321291e-20
0.0025
-3.775191329e-19
2.141563783e-20
0.0025
-5.44576461e-19
-1.277850151e-20
0.0025
-2.581057737e-19
-2.185825194e-19
0.0025
-2.117280799e-19
-7.271411644e-20
0.0025
-2.34646754e-19
-3.979439991e-19
0.0025
3.040824756e-20
-2.488700253e-19
0.0025
4.574115633e-19
-2.68266408e-19
0.0025
-2.498699621e-19
3.106719253e-19
0.0025
-6.021682693e-20
1.791493154e-21
0.0025
-2.114347208e-19
-2.437595991e-19
0.0025
-3.194271565e-19
-4.653269974e-20
0.0025
-2.575093671e-19
-2.638937764e-19
0.0025
-5.851648855e-20
-2.073542424e-19
0.0025
-2.202430807e-19
-2.425635264e-19
0.0025
-2.819140289e-20
-3.079888666e-19
0.0025
-1.715966498e-19
-1.637077314e-19
0.0025
4.724943261e-19
-2.8750161e-20
0.0025
-8.032401917e-19
-1.640814788e-18
0.0025
-5.95765659e-20
-8.995048503e-19
0.0025
-2.83964607e-19
-1.565654597e-18
0.0025
-8.611363438e-19
-1.11001057e-18
0.0025
-4.033044606e-19
-9.497278129e-19
0.0025
-2.569278957e-20
-1.403459812e-18
0.0025
-1.209569282e-18
-6.480652438e-19
0.0025
-9.074698436e-19
-9.127085495e-19
0.0025
-3.511252027e-19
-1.338606641e-18
0.0025
4.950624181e-20
-1.207706457e-18
0.0025
-1.288292156e-18
-3.465742081e-19
0.0025
-1.008790846e-18
-6.127578803e-19
0.0025
-8.97112983e-19
-9.901852534e-19
0.0025
-3.676383967e-19
-1.057942602e-18
0.0025
-5.416137323e-19
-1.044911067e-18
0.0025
-1.522249273e-18
-7.840763294e-19
0.0025
-1.258233988e-18
-6.256992215e-19
0.0025
-1.003680559e-18
-4.265298011e-19
0.0025
-7.096916219e-19
-6.273353856e-19
0.0025
-7.524379076e-19
-8.629941661e-19
0.0025
-8.288771211e-19
-9.650478631e-19
0.0025
-9.225338031e-19
3.7972398e-19
0.0025
-8.36546427e-19
-6.817634738e-20
0.0025
-8.861554224e-19
3.571482128e-20
0.0025
-8.094312872e-19
-3.810929218e-19
0.0025
-3.954175693e-19
-4.413805902e-19
0.0025
-6.347019116e-19
-8.390600778e-19
0.0025
-8.001833554e-19
-6.697611847e-19
0.0025
-6.355886207e-19
2.009403547e-19
0.0025
-9.264998087e-19
1.360536076e-19
0.0025
-6.766838988e-19
1.25402188e-19
0.0025
-7.14056074e-19
4.303569968e-20
0.0025
-5.536369129e-19
-3.074870013e-19
0.0025
-1.561585141e-19
-3.995412516e-19
0.0025
-3.907059506e-19
-5.100864744e-19
0.0025
-7.474150506e-19
-9.911905455e-19
0.0025
3.718451532e-19
4.138419662e-19
0.0025
-3.198721345e-19
2.93420716e-19
0.0025
-4.992100447e-19
2.082357404e-19
0.0025
-5.640958762e-19
3.449590036e-20
0.0025
-2.330493839e-19
-2.180410739e-19
0.0025
-3.745153999e-19
3.602115273e-20
0.0025
-2.957821897e-19
-3.467061421e-19
0.0025
6.091352159e-20
-3.424176564e-19
0.0025
1.312855665e-19
-4.605985344e-19
0.0025
-2.348592374e-19
2.128308042e-19
0.0025
1.285056392e-19
1.621104729e-19
0.0025
-3.53722056e-19
-1.558985097e-19
0.0025
-3.622096772e-19
-1.217599254e-21
0.0025
-3.245149068e-19
-1.024541301e-19
0.0025
-1.69289454e-19
-2.264523699e-19
0.0025
-2.267169939e-19
-1.066131185e-19
0.0025
-1.92932109e-19
-3.697672836e-19
0.0025
-4.444990964e-20
-4.776682888e-19
0.0025
5.122608973e-19
-2.966935569e-19
0.0025
-7.636661176e-20
4.095232266e-19
0.0025
-7.326062798e-20
-1.714486858e-19
0.0025
-2.967668744e-19
-3.916958218e-19
0.0025
-1.157124054e-19
-7.413387532e-20
0.0025
-3.825593498e-19
2.860411648e-20
0.0025
4.38830135e-21
-2.012969526e-19
0.0025
-1.679197818e-19
-4.566830861e-19
0.0025
-2.536944181e-19
-4.642988579e-19
0.0025
-2.866787505e-19
2.756999808e-21
0.0025
-1.563032897e-21
-2.174072534e-19
0.0025
3.90778103e-20
-1.825605101e-19
0.0025
-8.332067006e-19
-1.292929122e-18
0.0025
-1.17613988e-19
-6.543741544e-19
0.0025
-3.71337482e-19
-1.386544767e-18
0.0025
-6.285946649e-19
-1.634818429e-18
0.0025
-1.734939889e-19
-8.709296033e-19
0.0025
-1.609593773e-19
-1.35490606e-18
0.0025
-1.265250849e-18
-7.834556442e-19
0.0025
-5.576109286e-19
-1.077959441e-18
0.0025
-2.473098497e-19
-1.273910525e-18
0.0025
4.022218308e-19
-1.074247889e-18
0.0025
-1.141237379e-18
-3.607271692e-19
0.0025
-9.476897496e-19
-7.487535344e-19
0.0025
-5.372050614e-19
-1.19164178e-18
0.0025
-2.862817586e-19
-1.207478457e-18
0.0025
-5.538163517e-19
-1.187917424e-18
0.0025
-1.343820773e-18
-7.188901071e-19
0.0025
-1.230661275e-18
-5.831897499e-19
0.0025
-9.719666819e-19
-8.304562091e-19
0.0025
-7.583254986e-19
-1.03888828e-18
0.0025
-6.45485729e-19
-9.425196408e-19
0.0025
-3.079513794e-19
-1.069275704e-18
0.0025
-8.63662369e-19
3.197224168e-19
0.0025
-1.020630332e-18
-4.081789496e-19
0.0025
-9.980375896e-19
-2.841360139e-19
0.0025
-8.416343334e-19
-5.967257628e-19
0.0025
-4.988440495e-19
-7.548588607e-19
0.0025
-6.076624479e-19
-1.000790432e-18
0.0025
-6.79930067e-19
-7.138573287e-19
0.0025
-1.323163635e-18
-3.073735334e-19
0.0025
-1.039302278e-18
-2.058724448e-20
0.0025
-8.087967586e-19
2.527509558e-19
0.0025
-8.846920816e-19
7.405385605e-20
0.0025
-3.924972088e-19
-5.033194569e-19
0.0025
-3.681990415e-19
-6.329193071e-19
0.0025
-3.573777459e-19
-8.130318254e-19
0.0025
-1.433480001e-18
-1.29322851e-18
0.0025
-4.265082579e-19
2.426272604e-19
0.0025
-6.120409309e-19
3.587124145e-19
0.0025
-7.556450434e-19
3.073685179e-20
0.0025
-7.260005738e-19
-1.97949019e-19
0.0025
-4.464201464e-19
-1.891796336e-19
0.0025
-5.986730964e-19
-4.280401881e-19
0.0025
-3.882680133e-19
-4.338032567e-19
0.0025
-2.799304307e-19
-4.741022873e-19
0.0025
-4.291611009e-19
-1.079616081e-18
0.0025
-4.477101181e-20
1.531914506e-19
0.0025
1.108007238e-19
2.557655556e-19
0.0025
-5.256765432e-19
5.618170683e-20
0.0025
-4.338208065e-19
1.558524519e-19
0.0025
-3.087853793e-19
-1.486611961e-19
0.0025
-3.278880124e-19
-1.671389698e-19
0.0025
-4.408359247e-19
-9.596564559e-20
0.0025
-1.957176862e-19
-5.127782581e-19
0.0025
-4.869750116e-20
-4.382938326e-19
0.0025
1.3694101e-19
-5.779306351e-19
0.0025
-5.992454211e-19
3.099008195e-19
0.0025
-7.968569902e-21
-1.22747881e-19
0.0025
-9.919808277e-20
-5.177978771e-20
0.0025
-5.068079735e-20
-5.455043184e-21
0.0025
-4.825914623e-19
-5.789691275e-20
0.0025
-1.923969089e-19
-1.069293636e-19
0.0025
-1.720215184e-19
-4.557524689e-19
0.0025
-4.463394984e-19
-3.630458779e-19
0.0025
-2.344945313e-19
-1.813777631e-19
0.0025
1.686507436e-19
-4.461973607e-19
0.0025
1.621973577e-19
-4.961922634e-19
0.0025
4.291145599e-19
5.986934976e-19
0.0025
-5.482656841e-20
1.668742381e-20
0.0025
-2.518236237e-19
-1.871341706e-19
0.0025
9.563378042e-20
-1.301785794e-19
0.0025
-1.950979901e-19
1.555568361e-20
0.0025
-1.719608229e-19
-3.228308287e-19
0.0025
-1.861585431e-19
-3.321968273e-19
0.0025
-2.016118023e-19
-3.119345987e-19
0.0025
-1.658276089e-19
-3.205899133e-19
0.0025
-3.774888698e-19
-2.798964578e-19
0.0025
-9.012951554e-20
2.486566528e-20
0.0025
2.714847204e-19
-2.179953916e-19
0.0025
-4.186163372e-19
-1.658042922e-19
0.0025
-3.154436526e-19
-2.164714966e-19
0.0025
-4.884825114e-19
-1.092133813e-18
0.0025
-6.365746408e-19
-1.580811768e-18
0.0025
-1.564708672e-19
-6.769020168e-19
0.0025
-1.330442134e-19
-1.101605307e-18
0.0025
-1.270160458e-18
-1.046511856e-18
0.0025
-3.300955001e-19
-1.443462779e-18
0.0025
-2.979446876e-19
-1.062775968e-18
0.0025
2.172073772e-19
-1.047845177e-18
0.0025
-1.092277364e-18
-4.891802721e-19
0.0025
-8.1950593e-19
-7.925774253e-19
0.0025
-4.303687781e-19
-1.111353644e-18
0.0025
-2.341252475e-20
-1.246054636e-18
0.0025
-3.226053829e-19
-1.185650503e-18
0.0025
-1.043441273e-18
-4.885535901e-19
0.0025
-1.154750362e-18
-6.558372359e-19
0.0025
-9.004688037e-19
-1.26151838e-18
0.0025
-6.416363535e-19
-1.201429083e-18
0.0025
-6.140726333e-19
-8.737310456e-19
0.0025
2.717173062e-19
-1.044411612e-18
0.0025
-9.998698178e-19
1.140546198e-19
0.0025
-1.033237247e-18
-6.033139294e-19
0.0025
-1.014880571e-18
-5.545719275e-19
0.0025
-8.778899657e-19
-9.08579172e-19
0.0025
-5.413744985e-19
-9.800458024e-19
0.0025
-3.791979814e-19
-9.743849312e-19
0.0025
-1.050783592e-19
-6.593382706e-19
0.0025
-1.656797443e-18
-5.549999424e-19
0.0025
-9.014752383e-19
4.358645575e-20
0.0025
-9.191914018e-19
-6.82528735e-20
0.0025
-9.880308974e-19
-2.390656828e-19
0.0025
-3.634528152e-19
-6.662411228e-19
0.0025
-5.869165993e-19
-1.065784481e-18
0.0025
-5.336382646e-19
-8.714842812e-19
0.0025
-1.206460099e-18
-1.304243455e-18
0.0025
-1.380659079e-18
1.982380137e-19
0.0025
-9.45032608e-19
1.149237356e-19
0.0025
-8.097555203e-19
-1.804817489e-20
0.0025
-8.283047194e-19
-7.837135518e-20
0.0025
-6.414305652e-19
-4.891786098e-19
0.0025
-5.917157431e-19
-7.513492096e-19
0.0025
-3.870473507e-19
-5.278566889e-19
0.0025
-7.701130403e-19
-6.904807496e-19
0.0025
-4.648785038e-19
-1.476135368e-18
0.0025
-1.642682154e-19
3.722975573e-19
0.0025
-2.554401206e-19
1.710781944e-19
0.0025
-8.492452575e-19
1.062958692e-19
0.0025
-7.013464084e-19
1.1354547e-19
0.0025
-5.879856168e-19
-5.832306614e-19
0.0025
-7.097837867e-19
-5.580249782e-19
0.0025
-8.700691583e-19
-6.412845761e-19
0.0025
-4.022206418e-19
-6.243486684e-19
0.0025
-2.035771859e-19
-4.53598089e-19
0.0025
-3.439903838e-19
-9.883333449e-19
0.0025
-6.394234313e-19
1.260826197e-19
0.0025
6.638748398e-20
8.993728998e-20
0.0025
-1.035414143e-19
4.249563325e-19
0.0025
-2.328073602e-19
-1.261182438e-21
0.0025
-5.126802383e-19
-8.923062753e-20
0.0025
-3.743894985e-19
-1.303743179e-19
0.0025
-3.212262408e-19
-2.333715571e-19
0.0025
-5.219930405e-19
-3.354001206e-19
0.0025
-1.117718979e-19
-3.985238214e-19
0.0025
7.644760733e-20
-4.122257102e-19
0.0025
7.755852632e-20
-6.783436925e-19
0.0025
1.765509284e-19
9.263791138e-19
0.0025
-3.449468741e-19
-2.369847058e-20
0.0025
-6.87393072e-20
-8.632881035e-20
0.0025
1.950997313e-19
2.252353339e-20
0.0025
-2.948655332e-19
4.958248439e-20
0.0025
-2.692097359e-19
-2.456640614e-19
0.0025
-2.86690829e-19
-3.182240725e-19
0.0025
-3.02492876e-19
-3.574942025e-19
0.0025
-2.690892346e-19
-2.062936488e-19
0.0025
-2.747527568e-19
-4.478352018e-19
0.0025
2.703876327e-19
-2.382977859e-19
0.0025
5.377775996e-19
-3.141412881e-19
0.0025
3.076735364e-19
2.151364947e-19
0.0025
-5.217117259e-20
1.95136153e-20
0.0025
5.742211177e-20
1.824369796e-19
0.0025
1.538819505e-19
-7.274368978e-20
0.0025
2.009917383e-19
1.075039362e-19
0.0025
-2.287295897e-19
-6.90015882e-20
0.0025
-2.153749501e-19
-2.487024131e-19
0.0025
-7.943905895e-20
-3.635753686e-19
0.0025
2.008580455e-19
1.311577883e-20
0.0025
-2.39212637e-19
-1.603738764e-20
0.0025
-5.022697838e-20
-1.487978549e-19
0.0025
-1.49565445e-19
-5.719863073e-21
0.0025
4.81786963e-19
-1.698541765e-21
0.0025
5.729465879e-20
5.349354677e-19
0.0025
-4.305530058e-19
1.061349481e-19
0.0025
-4.23442389e-19
-2.55950547e-19
0.0025
-6.554097194e-19
-9.831620253e-19
0.0025
-3.449576627e-19
-2.339730146e-19
0.0025
1.597220905e-19
-7.121726039e-19
0.0025
-1.068476781e-18
-7.661907134e-19
0.0025
-2.873481675e-19
-1.331583897e-18
0.0025
-1.866349551e-19
-7.0446108e-19
0.0025
-1.571644317e-19
-9.148947426e-19
0.0025
-9.829096539e-19
-7.553356047e-19
0.0025
-5.95862349e-19
-1.080232626e-18
0.0025
-3.640430113e-19
-1.177638905e-18
0.0025
-1.362912886e-19
-1.043861547e-18
0.0025
-9.400205888e-20
-1.072733458e-18
0.0025
-8.790512489e-19
-4.506447532e-19
0.0025
-9.123887104e-19
-6.898992483e-19
0.0025
-7.868904983e-19
-1.145874593e-18
0.0025
-4.150484416e-19
-1.090530379e-18
0.0025
-2.50624499e-19
-9.243333518e-19
0.0025
4.593129888e-19
-1.155180908e-18
0.0025
-1.153543423e-18
-3.000754215e-19
0.0025
-8.348060131e-19
-3.870162881e-19
0.0025
-1.106683722e-18
-8.937766877e-19
0.0025
-5.844149671e-19
-1.111707601e-18
0.0025
-4.74334171e-19
-9.257978343e-19
0.0025
2.020921849e-20
-7.969210359e-19
0.0025
1.595485689e-20
-6.481585823e-19
0.0025
-1.685000903e-18
-3.077162978e-19
0.0025
-7.978034548e-19
-2.558377725e-20
0.0025
-8.984539122e-19
-5.115495583e-19
0.0025
-9.05217901e-19
-6.511518114e-19
0.0025
-3.69701562e-19
-8.515306608e-19
0.0025
-6.579627854e-19
-9.960417288e-19
0.0025
-5.036797934e-19
-9.165786736e-19
0.0025
-3.968144336e-19
-8.172317876e-19
0.0025
-2.042134368e-18
2.842123096e-20
0.0025
-1.301488791e-18
-1.97394975e-19
0.0025
-8.693366069e-19
-2.128652266e-20
0.0025
-6.94284042e-19
-9.332554343e-20
0.0025
-6.586621673e-19
-6.581058634e-19
0.0025
-6.038959573e-19
-9.320120247e-19
0.0025
-2.852909315e-19
-6.795899722e-19
0.0025
-8.717218841e-19
-8.277097393e-19
0.0025
-4.242815419e-19
-1.582312156e-18
0.0025
-5.439552368e-19
5.034452437e-19
0.0025
-8.167022965e-19
2.060195854e-19
0.0025
-1.0259642e-18
7.697284231e-20
0.0025
-7.263521779e-19
-7.929015157e-22
0.0025
-1.044334769e-18
-7.424725499e-19
0.0025
-9.208673739e-19
-1.041938381e-18
0.0025
-8.694045976e-19
-9.562385632e-19
0.0025
-5.935096582e-19
-7.444884605e-19
0.0025
-3.587238918e-19
-7.856711125e-19
0.0025
-4.345127941e-19
-1.128991234e-18
0.0025
-2.600150862e-19
1.349296025e-19
0.0025
-2.955715891e-19
4.456116939e-19
0.0025
-5.012941304e-19
4.085696832e-19
0.0025
-3.492714784e-19
-1.821318233e-19
0.0025
-6.414481467e-19
-1.178418268e-19
0.0025
-6.577263292e-19
-4.868993006e-19
0.0025
-6.447862667e-19
-4.407127404e-19
0.0025
-5.077127628e-19
-4.283401284e-19
0.0025
-2.222008786e-19
-7.127589547e-19
0.0025
-1.09525486e-19
-5.086159172e-19
0.0025
-3.983722822e-20
-6.928670089e-19
0.0025
-2.18324258e-19
6.680869062e-19
0.0025
-4.256802102e-19
-1.048722676e-19
0.0025
-6.560659536e-20
5.831858151e-20
0.0025
-4.490665738e-21
2.447286675e-19
0.0025
-4.509019599e-19
1.222123859e-21
0.0025
-4.004692377e-19
-1.039306858e-19
0.0025
-1.954120369e-19
-5.501961791e-20
0.0025
-3.774571889e-19
-2.855235562e-19
0.0025
-2.687065339e-19
-2.068994572e-19
0.0025
-7.520084921e-20
-3.875237585e-19
0.0025
2.265220975e-19
-2.628613849e-19
0.0025
4.853347721e-19
-5.469177155e-19
0.0025
5.906114464e-19
3.98293204e-19
0.0025
-2.111014466e-19
3.992113223e-19
0.0025
-9.346559309e-20
1.482344405e-19
0.0025
1.373562904e-19
-1.520535558e-19
0.0025
2.488059616e-20
9.233117985e-20
0.0025
-2.485113757e-19
-6.091380554e-20
0.0025
-2.436857118e-19
-1.534170369e-19
0.0025
-1.569010525e-19
-3.287427118e-19
0.0025
2.556799316e-20
-9.289691178e-20
0.0025
-3.665055638e-19
1.935451706e-20
0.0025
1.929754455e-19
-3.334645136e-19
0.0025
1.871633687e-19
-2.391533272e-19
0.0025
5.674595949e-19
-4.203105506e-20
0.0025
7.257597118e-20
2.150254732e-19
0.0025
-2.273028687e-19
-1.134209837e-19
0.0025
3.555496378e-19
-1.089695165e-19
0.0025
-1.10764641e-19
1.700644873e-19
0.0025
1.703561856e-19
-2.483849306e-22
0.0025
-1.253080157e-19
-2.435638181e-19
0.0025
-6.74645872e-20
-2.206339335e-19
0.0025
-1.620330549e-19
1.817005078e-19
0.0025
2.449695345e-19
-2.164183037e-19
0.0025
9.676401032e-20
1.096087958e-19
0.0025
-1.185083263e-19
1.930533864e-19
0.0025
-1.847615922e-20
6.759312891e-20
0.0025
1.980596239e-19
-2.147464196e-19
0.0025
3.41553471e-19
2.8850231e-19
0.0025
3.612492453e-19
9.567750655e-19
0.0025
-1.277103259e-19
2.863609236e-19
0.0025
-2.251681075e-19
3.58741774e-19
0.0025
-4.384746834e-19
-2.860393134e-19
0.0025
-5.104688724e-19
8.870830437e-20
0.0025
5.558905172e-20
-2.07239875e-20
0.0025
-5.571342685e-19
-1.468676576e-19
0.0025
-1.74738247e-19
-5.419339922e-19
0.0025
1.426524994e-20
-1.834019823e-19
0.0025
-4.472482598e-20
-5.547087049e-19
0.0025
-5.79861247e-19
-6.892650502e-19
0.0025
-4.42552816e-19
-9.720977973e-19
0.0025
-3.619406796e-19
-1.085700388e-18
0.0025
-3.152827982e-19
-6.987951046e-19
0.0025
1.234147636e-19
-6.851591004e-19
0.0025
-6.275274562e-19
-4.047298781e-19
0.0025
-6.127758674e-19
-9.428345747e-19
0.0025
-4.606906617e-19
-1.040190045e-18
0.0025
-4.6023957e-19
-9.093252582e-19
0.0025
-1.354860622e-19
-9.949988518e-19
0.0025
3.201208822e-19
-1.224902755e-18
0.0025
-1.117797582e-18
-7.491790093e-19
0.0025
-6.921785314e-19
-3.915270885e-19
0.0025
-1.195563204e-18
-1.061416644e-18
0.0025
-4.689137761e-19
-1.043985558e-18
0.0025
-3.858054182e-19
-1.079784727e-18
0.0025
2.041416986e-19
-8.907890874e-19
0.0025
2.562238424e-20
-7.463458917e-19
0.0025
-1.348862766e-18
-4.11488227e-20
0.0025
-6.698369767e-19
-3.154377623e-19
0.0025
-9.197868437e-19
-5.903387653e-19
0.0025
-5.419695629e-19
-9.084104745e-19
0.0025
-3.351246063e-19
-7.969695338e-19
0.0025
-3.489695307e-19
-8.175558122e-19
0.0025
-5.005934033e-19
-8.1702852e-19
0.0025
3.022771341e-19
-2.01962951e-19
0.0025
-1.874699342e-18
2.733413456e-20
0.0025
-1.182220461e-18
-2.702555246e-19
0.0025
-9.139687146e-19
-2.092889572e-19
0.0025
-5.627853522e-19
-3.150487383e-19
0.0025
-6.348124581e-19
-8.400870023e-19
0.0025
-5.21789557e-19
-1.052764138e-18
0.0025
-4.744603656e-19
-6.108670714e-19
0.0025
-4.808481808e-19
-7.761654134e-19
0.0025
-2.054587767e-19
-1.083473008e-18
0.0025
-1.007012141e-18
5.374705089e-19
0.0025
-1.273254483e-18
3.404803969e-20
0.0025
-1.183748547e-18
1.638850645e-20
0.0025
-6.831086578e-19
-1.006048392e-19
0.0025
-9.052999308e-19
-3.904448067e-19
0.0025
-7.129070241e-19
-9.022225661e-19
0.0025
-2.517601338e-19
-1.030422463e-18
0.0025
-5.329469206e-19
-6.521772537e-19
0.0025
-4.129671772e-19
-9.541492692e-19
0.0025
-1.928786971e-19
-1.085190157e-18
0.0025
4.080154163e-20
5.191899104e-19
0.0025
-7.164634567e-19
6.919538162e-19
0.0025
-8.738290527e-19
2.846390202e-19
0.0025
-4.206552419e-19
-2.671421214e-19
0.0025
-1.011409602e-18
-3.159913141e-19
0.0025
-8.446773267e-19
-7.765341447e-19
0.0025
-7.139700037e-19
-7.103116685e-19
0.0025
-4.15918123e-19
-6.502436219e-19
0.0025
-5.358708953e-19
-9.652990638e-19
0.0025
-2.267331652e-19
-7.487332082e-19
0.0025
-7.655220298e-20
-8.303585038e-19
0.0025
-2.739074122e-19
3.021973955e-19
0.0025
-3.591850127e-19
7.412812323e-20
0.0025
-1.86003225e-19
3.986254322e-19
0.0025
-1.492696356e-19
3.041191438e-19
0.0025
-4.521083572e-19
-1.712398396e-19
0.0025
-5.7329942e-19
-1.533915532e-19
0.0025
-1.55186187e-19
-8.734998849e-20
0.0025
-2.096888967e-19
-2.540419013e-19
0.0025
-3.669538379e-19
-2.82925464e-19
0.0025
-9.648633887e-20
-5.828894389e-19
0.0025
-2.147782436e-21
-4.004192246e-19
0.0025
1.431295986e-19
-5.373941266e-19
0.0025
1.79806055e-19
4.380587634e-19
0.0025
-2.989089491e-19
5.483521461e-19
0.0025
-9.538556938e-20
1.313470268e-19
0.0025
8.079465033e-20
-9.14815203e-20
0.0025
-2.581105482e-19
2.903364202e-20
0.0025
-3.074337116e-19
2.497826765e-20
0.0025
-1.985908763e-19
-2.211099342e-20
0.0025
-2.294114808e-19
-6.504785109e-20
0.0025
-1.712897881e-19
-1.899876042e-19
0.0025
-2.463477469e-19
-8.313173377e-21
0.0025
2.015950786e-19
-3.052409723e-19
0.0025
4.099090169e-19
-4.011603789e-19
0.0025
5.013345193e-19
-3.650888379e-19
0.0025
4.217891627e-19
5.627733595e-19
0.0025
-6.940910129e-20
1.005747267e-19
0.0025
2.117839272e-19
1.014498773e-19
0.0025
-2.31731691e-19
-1.137217491e-19
0.0025
8.478384097e-20
2.683399495e-21
0.0025
-2.367084463e-19
-1.049399361e-19
0.0025
-2.18097169e-20
-2.159076465e-19
0.0025
-2.779289149e-19
1.773446416e-19
0.0025
5.958240127e-20
-1.676404469e-19
0.0025
1.384231e-20
7.474985341e-20
0.0025
-2.369584358e-19
2.5234755e-20
0.0025
2.508477729e-19
-1.345048783e-19
0.0025
5.72256913e-19
-2.347096783e-19
0.0025
3.99949206e-19
1.054555521e-19
0.0025
-1.429493994e-19
-6.368700375e-20
0.0025
-6.125661647e-20
2.8326161e-19
0.0025
2.09375901e-19
-8.476357496e-20
0.0025
1.497307209e-19
-9.992218299e-20
0.0025
-7.834015233e-20
-1.708260765e-19
0.0025
-1.727493685e-20
4.847965113e-20
0.0025
9.884533306e-20
-3.676530185e-19
0.0025
-1.748977323e-19
-2.341934277e-19
0.0025
-2.511052475e-19
2.539414758e-20
0.0025
1.56152112e-19
2.513588116e-20
0.0025
-2.012099437e-20
2.202288552e-19
0.0025
1.468082059e-19
1.701123388e-19
0.0025
9.356161633e-20
-1.341186805e-19
0.0025
-5.71804984e-20
-2.181780907e-19
0.0025
2.272792789e-20
4.285214725e-19
0.0025
4.526386722e-19
1.383143755e-18
0.0025
3.920114645e-19
6.282750007e-19
0.0025
-7.098961106e-20
7.068345337e-19
0.0025
1.07424139e-20
4.591700696e-19
0.0025
-1.610233212e-19
2.97926139e-19
0.0025
1.228985924e-19
4.912628762e-19
0.0025
9.515598985e-20
3.950471091e-19
0.0025
-1.515584021e-19
1.67025596e-20
0.0025
-2.680862871e-20
2.882899008e-19
0.0025
3.769191716e-21
-2.646898925e-19
0.0025
1.085637894e-19
-1.75314059e-19
0.0025
-9.052530886e-20
-3.400788569e-19
0.0025
-2.924416551e-19
-5.458861421e-19
0.0025
-2.728865752e-19
-2.704532054e-19
0.0025
3.604849783e-19
-3.447676526e-19
0.0025
-3.981732316e-19
-2.407883215e-19
0.0025
-2.246779011e-19
-7.59459251e-19
0.0025
-4.33129785e-19
-9.110605684e-19
0.0025
-3.876233522e-19
-8.011541915e-19
0.0025
-1.25417759e-19
-8.704868647e-19
0.0025
-1.463894942e-20
-9.230758267e-19
0.0025
-6.767077055e-19
-8.876611828e-19
0.0025
-7.568306196e-19
-6.425200366e-19
0.0025
-7.845793732e-19
-1.288510552e-18
0.0025
-4.500809339e-19
-8.315234649e-19
0.0025
-4.118306054e-19
-9.732250354e-19
0.0025
6.320336869e-20
-1.104425392e-18
0.0025
-7.944170199e-20
-1.052554607e-18
0.0025
-1.209453179e-18
-3.843161121e-21
0.0025
-6.625587865e-19
-7.540874941e-19
0.0025
-9.730940835e-19
-6.073162616e-19
0.0025
-4.018555614e-19
-8.718573947e-19
0.0025
-4.979036591e-19
-8.434395366e-19
0.0025
-5.219018718e-20
-1.018909552e-18
0.0025
-2.484238075e-19
-8.07928219e-19
0.0025
6.086417079e-19
-8.130294687e-20
0.0025
-9.41362517e-19
1.882747124e-19
0.0025
-9.41352179e-19
-2.093822008e-19
0.0025
-7.036788754e-19
-3.052987406e-19
0.0025
-5.361129297e-19
-5.76476906e-19
0.0025