/*--------------------------------*- C++ -*----------------------------------*\
| =========                 |                                                 |
| \\      /  F ield         | OpenFOAM: The Open Source CFD Toolbox           |
|  \\    /   O peration     | Version:  2212                                  |
|   \\  /    A nd           | Website:  www.openfoam.com                      |
|    \\/     M anipulation  |                                                 |
\*---------------------------------------------------------------------------*/
FoamFile
{
    version     2.0;
    format      ascii;
    arch        "LSB;label=32;scalar=64";
    class       volVectorField;
    location    "0.4";
    object      U;
}
// * * * * * * * * * * * * * * * * * * * * * * * * * * * * * * * * * * * * * //

dimensions      [0 1 -1 0 0 0 0];

internalField   nonuniform List<vector> 
42875
(
(1 1.525055422e-16 2.491821265e-16)
(1 2.249834489e-17 1.371525116e-16)
(1 8.924210186e-17 -4.441369915e-17)
(1 -1.561761762e-16 -9.372976894e-18)
(1 -1.741035494e-16 -7.342666835e-17)
(1 1.049634683e-19 -1.408483741e-16)
(1 -2.671049056e-16 -5.420125455e-17)
(1 -1.114281699e-16 3.110192594e-17)
(1 -1.502102497e-16 -6.389752687e-17)
(1 6.209743703e-17 -2.653674463e-16)
(1 -3.438459244e-16 -3.092895406e-16)
(1 -2.303123576e-16 -2.108900178e-16)
(1 -3.137597769e-16 3.446290705e-17)
(1 -4.026235198e-16 -2.473162614e-16)
(1 -3.584073156e-16 -1.963155813e-16)
(1 -1.111622032e-16 -2.796443303e-16)
(1 -5.640053429e-17 7.072145604e-17)
(1 -2.825660505e-17 -7.387326316e-19)
(1 6.165379218e-17 -6.922529e-17)
(1 1.362167836e-17 -6.908142031e-17)
(1 -5.84733868e-16 -5.961486736e-16)
(1 -4.36125401e-16 -3.03406607e-16)
(1 -3.457439392e-16 -1.321462038e-16)
(1 -4.938615194e-16 -2.889667128e-16)
(1 -3.754615276e-16 -1.828770868e-16)
(1 -4.777391843e-16 -1.459158811e-16)
(1 -4.67553224e-16 1.465469494e-16)
(1 -1.325934071e-16 -2.00173105e-16)
(1 -1.205209272e-16 -9.54684175e-17)
(1 -4.77895166e-17 -1.106265926e-16)
(1 -1.339941255e-16 1.757188814e-16)
(1 7.151881486e-17 1.871867002e-16)
(1 8.940145055e-17 -8.868448879e-17)
(1 -2.309275178e-17 -1.900987729e-17)
(1 1.73323067e-16 -7.683032333e-17)
(1 -6.68581909e-16 -8.171819442e-16)
(1 -1.004138878e-15 -4.502964838e-16)
(1 -4.581307461e-16 -6.60004667e-16)
(1 -5.618929478e-16 -2.349031538e-16)
(1 -4.021567629e-16 -2.900308603e-16)
(1 -5.113526884e-16 -1.224431352e-16)
(1 -5.727950585e-16 -8.218335181e-18)
(1 -2.608967953e-16 -2.415103596e-16)
(1 -5.238224641e-16 -1.175264233e-16)
(1 -2.777294936e-16 -3.03871628e-16)
(1 -3.384537879e-16 1.157359884e-16)
(1 -7.852020036e-17 8.917973589e-17)
(1 -9.191871928e-17 3.456099622e-17)
(1 -5.616080932e-18 9.141687699e-17)
(1 1.190523533e-16 -1.183104502e-16)
(1 4.207562856e-17 1.714499354e-16)
(1 -2.259936828e-17 9.878447649e-17)
(1 -1.133593733e-18 9.850388981e-17)
(1 1.406667167e-16 5.313048732e-17)
(1 2.067753461e-16 8.459998492e-17)
(1 1.696233518e-16 1.511188766e-16)
(1 -6.78640186e-16 -1.120919005e-15)
(1 -1.032219363e-15 -4.369161184e-16)
(1 -3.100353539e-16 -7.918573066e-16)
(1 -7.004997826e-16 -1.682623686e-16)
(1 -5.902706582e-16 -5.296499228e-16)
(1 -4.457731371e-16 -2.842882059e-16)
(1 -5.993543955e-16 -1.989540523e-17)
(1 -3.435218446e-16 -2.529639705e-16)
(1 -5.73140602e-16 -1.874783087e-16)
(1 -4.010068383e-16 -3.339812604e-16)
(1 -4.635832379e-16 -4.290249598e-17)
(1 -3.400693741e-16 -9.530452798e-17)
(1 -3.758700775e-16 -5.50606103e-17)
(1 -2.911156243e-16 -1.588247252e-16)
(1 -2.821952718e-16 -2.095452708e-16)
(1 -2.0909995e-16 3.276316564e-16)
(1 -1.733459574e-16 1.024337962e-16)
(1 -1.000948213e-16 1.790813149e-17)
(1 4.619756649e-18 1.218660327e-16)
(1 1.274117841e-16 3.01671418e-17)
(1 1.273350285e-16 -1.381648757e-18)
(1 -2.293928212e-17 1.042415048e-17)
(1 -1.587020889e-16 2.19501002e-16)
(1 -1.412919558e-16 4.325593212e-17)
(1 1.88902716e-16 3.802503375e-17)
(1 1.533731628e-16 3.866971153e-17)
(1 8.601407882e-17 6.984074711e-17)
(1 8.580006468e-17 1.215195094e-17)
(1 -6.377060791e-16 -1.052382693e-15)
(1 -9.448450457e-16 -5.027638151e-16)
(1 -4.228623867e-17 -9.351346403e-16)
(1 -7.05672018e-16 -6.307152414e-17)
(1 -3.899533212e-16 -5.468398824e-16)
(1 -3.524665292e-16 -3.46496746e-16)
(1 -3.535222476e-16 -2.298365715e-16)
(1 -5.291898112e-16 -2.299474135e-16)
(1 -5.712959398e-16 -3.25196982e-16)
(1 -4.723115427e-16 -3.559426157e-16)
(1 -4.574269891e-16 -1.710241605e-16)
(1 -5.731543554e-16 -2.354388866e-16)
(1 -5.022289538e-16 -2.528136709e-16)
(1 -5.216443161e-16 -4.533009205e-16)
(1 -5.860204182e-16 -2.530507017e-16)
(1 -4.177354165e-16 2.725817819e-16)
(1 -2.25453247e-16 -1.602156432e-17)
(1 -3.364066636e-16 1.081550712e-16)
(1 -5.531005989e-17 3.548626711e-17)
(1 -1.330280622e-16 -1.517922633e-16)
(1 -2.035429834e-16 -1.573900729e-16)
(1 -4.577648975e-17 1.211741118e-16)
(1 -1.759014295e-16 2.101946702e-16)
(1 -2.106778116e-16 1.31337305e-16)
(1 -5.922343211e-18 6.408033683e-17)
(1 -8.73678534e-17 -1.277898026e-17)
(1 9.549796086e-17 -6.748193644e-17)
(1 5.611384511e-17 3.139068034e-17)
(1 -1.51244049e-16 3.372510862e-16)
(1 5.816075633e-17 1.713237531e-16)
(1 8.927508322e-17 1.624289644e-16)
(1 3.657035143e-17 4.292161576e-17)
(1 -8.616907933e-18 4.662641047e-18)
(1 6.194115551e-17 9.722785676e-17)
(1 1.564375916e-16 -1.582147289e-17)
(1 1.397733805e-16 -1.199924318e-16)
(1 -4.224906418e-16 -6.880588874e-16)
(1 -8.173897103e-16 -3.454751297e-16)
(1 1.079368952e-16 -1.023210986e-15)
(1 -6.330148003e-16 -1.021457883e-16)
(1 -6.545593975e-17 -6.11058019e-16)
(1 -2.793634859e-16 -3.706933901e-16)
(1 -3.034379854e-16 -2.391600213e-16)
(1 -5.92897177e-16 -2.359906225e-16)
(1 -4.742541298e-16 -4.075333632e-16)
(1 -2.909927003e-16 -5.16636253e-16)
(1 -5.034467669e-16 -2.742608432e-16)
(1 -5.687527143e-16 -3.283246474e-16)
(1 -5.069435225e-16 -2.858536867e-16)
(1 -5.797165744e-16 -4.647293466e-16)
(1 -5.39436407e-16 -2.625175244e-16)
(1 -5.68733292e-16 2.96904613e-17)
(1 -4.008472369e-16 -1.038053982e-16)
(1 -4.479426968e-16 3.308805114e-17)
(1 -1.125452321e-16 -1.579330933e-16)
(1 -4.058327958e-16 -3.117896526e-16)
(1 -4.666366701e-16 -3.416063794e-16)
(1 -2.402763657e-16 2.538050745e-16)
(1 -1.487185472e-16 9.923679946e-17)
(1 -2.396320013e-16 1.278626726e-16)
(1 -1.477059574e-16 -2.70324353e-18)
(1 -2.230910797e-16 -2.639789214e-17)
(1 -8.201676569e-17 -9.944084194e-17)
(1 -2.563871153e-16 -1.76713007e-16)
(1 -1.789817913e-16 3.312941904e-16)
(1 -3.824559699e-17 2.239554627e-16)
(1 -6.898833707e-17 1.242473393e-16)
(1 -7.238362426e-17 2.432280128e-17)
(1 -2.001470296e-16 5.393310243e-18)
(1 -1.717378459e-17 -1.323451598e-16)
(1 2.721385383e-17 2.807347423e-17)
(1 1.339498625e-16 -2.865094044e-16)
(1 6.120525054e-17 2.954290912e-16)
(1 1.277124117e-16 1.331499499e-16)
(1 -9.379499639e-17 5.046629249e-17)
(1 -1.529658317e-16 2.497424236e-17)
(1 -1.689506292e-16 -9.428568132e-17)
(1 5.232171599e-17 -9.811403873e-17)
(1 -6.969315521e-18 -1.828252078e-17)
(1 3.685454283e-17 2.877891985e-17)
(1 2.648706131e-16 -5.979246569e-17)
(1 -3.752752213e-16 -6.461336305e-16)
(1 -3.163651329e-16 -3.25603357e-16)
(1 -3.93528043e-17 -7.473649174e-16)
(1 -3.768488226e-16 -2.290753918e-16)
(1 -9.691235048e-17 -4.860950829e-16)
(1 -5.928340441e-17 -5.207312523e-16)
(1 -5.257944865e-16 -2.503566209e-16)
(1 -4.388312543e-16 -3.280276778e-16)
(1 -3.364371638e-16 -4.224694162e-16)
(1 -1.036762047e-16 -6.438408199e-16)
(1 -3.379317472e-16 -1.715126867e-16)
(1 -4.413400093e-16 -2.78282383e-16)
(1 -4.732666883e-16 -2.919927777e-16)
(1 -3.11262106e-16 -5.01775321e-16)
(1 -3.425828451e-16 -2.310017298e-16)
(1 -7.938135894e-16 -2.510360253e-16)
(1 -5.26625946e-16 -3.420771547e-16)
(1 -4.884764244e-16 -2.076908905e-17)
(1 -2.210757278e-16 -2.584368205e-16)
(1 -4.642584081e-16 -2.729400869e-16)
(1 -4.889604225e-16 -4.537228167e-16)
(1 -3.824285791e-16 2.980090322e-16)
(1 -1.097628642e-16 -3.331328412e-17)
(1 -2.708181405e-16 5.079980742e-17)
(1 -2.537623344e-16 -2.449616899e-17)
(1 -1.014725257e-16 -3.204935645e-17)
(1 -3.286949829e-16 -1.344482629e-16)
(1 -3.485366927e-16 -1.898398956e-16)
(1 -1.860972725e-16 2.295590567e-16)
(1 -2.380284246e-16 2.598923855e-16)
(1 -1.516621913e-16 7.592340476e-17)
(1 -2.945533836e-16 4.331649417e-17)
(1 -2.996522339e-16 -1.106358747e-16)
(1 1.706163614e-17 -1.544862409e-16)
(1 -1.676599997e-16 -3.726126013e-18)
(1 -3.551595962e-17 -3.683886122e-16)
(1 1.402668763e-16 3.492541733e-16)
(1 1.31286949e-17 1.822733116e-16)
(1 -1.04498916e-16 8.441952707e-17)
(1 -2.394833142e-16 1.134001025e-16)
(1 -1.737638582e-16 -1.070160963e-16)
(1 -7.471819777e-17 -5.52432411e-17)
(1 -9.299666526e-17 -6.743347693e-17)
(1 -4.442501203e-18 -7.398584813e-17)
(1 2.877028495e-16 -2.087087423e-16)
(1 -2.610208748e-17 2.560024212e-16)
(1 -1.182396656e-17 1.860686831e-16)
(1 -1.380645556e-16 -1.672434455e-16)
(1 -2.658888355e-16 -1.111098691e-16)
(1 -6.322246263e-17 -1.375809312e-16)
(1 -1.179304388e-16 5.92918172e-18)
(1 -9.167169051e-17 -2.498417615e-17)
(1 4.69835875e-17 -3.229808191e-16)
(1 -4.906289391e-17 3.419325714e-17)
(1 2.381556005e-16 -2.021986633e-17)
(1 -5.097187073e-16 -7.110100422e-16)
(1 -5.968092607e-17 -3.640551163e-16)
(1 -8.164474926e-17 -5.915822782e-16)
(1 -1.245843195e-16 -4.546589019e-16)
(1 -1.87487122e-16 -3.033810897e-16)
(1 9.296319615e-17 -7.077910807e-16)
(1 -5.135136755e-16 -2.922443286e-16)
(1 -3.72163398e-16 -3.812941811e-16)
(1 -1.656679949e-16 -5.199705205e-16)
(1 3.033039688e-17 -5.168396234e-16)
(1 -3.956819738e-16 -4.221808451e-17)
(1 -4.645996683e-16 -2.98692075e-16)
(1 -3.325857689e-16 -3.49252197e-16)
(1 -2.551469813e-17 -5.166793056e-16)
(1 -1.768401221e-16 -3.72569123e-16)
(1 -8.640034994e-16 -3.792544943e-16)
(1 -4.7095915e-16 -3.392767712e-16)
(1 -4.343509139e-16 -1.228550892e-16)
(1 -3.052732709e-16 -3.537951193e-16)
(1 -3.269297067e-16 -3.23311146e-16)
(1 -3.714545246e-16 -5.000617741e-16)
(1 -3.996130445e-16 2.308141503e-16)
(1 -3.295791937e-16 -1.998319804e-16)
(1 -3.67271203e-16 -3.332024166e-17)
(1 -2.970387894e-16 -8.705954077e-17)
(1 -1.58936741e-16 -9.779382683e-17)
(1 -4.101692559e-16 -2.930846021e-16)
(1 -3.821711305e-16 -1.556570388e-16)
(1 -2.435173413e-16 -4.618621526e-18)
(1 -4.10841998e-16 1.725604287e-16)
(1 -3.195162022e-16 8.637116946e-17)
(1 -3.566168784e-16 2.631834606e-17)
(1 -2.757281215e-16 -1.852954562e-16)
(1 1.615403862e-17 -1.740179623e-16)
(1 -2.672231618e-16 -1.93927863e-16)
(1 -4.605546063e-16 -3.257918376e-16)
(1 4.325892181e-17 2.503261163e-16)
(1 -2.034554336e-16 1.891106279e-16)
(1 -1.266998038e-16 4.481897114e-17)
(1 -2.384297313e-16 8.190019274e-17)
(1 -1.485051906e-16 -5.994927785e-17)
(1 -1.865445562e-16 5.585748959e-17)
(1 -5.938989497e-17 -3.192878684e-17)
(1 3.378952391e-17 -1.165588992e-16)
(1 7.924116962e-17 -1.760665758e-16)
(1 2.160057873e-16 2.051827434e-16)
(1 3.396381384e-17 1.713188102e-16)
(1 -2.205429586e-16 -4.759129776e-17)
(1 -2.089342847e-16 1.446105773e-17)
(1 -9.989045691e-17 -3.936162106e-17)
(1 -1.168027431e-16 -2.87050748e-17)
(1 -1.190218244e-16 2.808143974e-17)
(1 -2.23422493e-17 -2.331997679e-16)
(1 4.983807263e-17 -1.814249244e-16)
(1 1.797737218e-16 -2.796330808e-17)
(1 -2.820073268e-16 3.470106241e-16)
(1 -2.947438464e-17 -3.192036962e-17)
(1 -1.170244575e-16 -2.133339421e-16)
(1 -1.005551647e-16 -5.692666007e-17)
(1 -1.890450335e-16 1.267679309e-16)
(1 7.121854752e-17 4.848478149e-17)
(1 -1.541113659e-17 -1.638965485e-16)
(1 -8.086859151e-17 -1.507331804e-16)
(1 -2.070892951e-16 6.617557378e-17)
(1 1.767131655e-16 -1.895741108e-16)
(1 6.602837846e-17 -4.363682112e-17)
(1 -5.250821558e-16 -4.90680806e-16)
(1 -1.324796254e-16 -3.037513324e-16)
(1 -1.151543715e-16 -6.503418411e-16)
(1 9.435653724e-17 -6.664981165e-16)
(1 -1.3370133e-16 -3.125725373e-16)
(1 -3.747189546e-17 -5.987792084e-16)
(1 -5.207324895e-16 -3.593085913e-16)
(1 -1.613025519e-16 -5.212071862e-16)
(1 -9.418919672e-17 -4.11742626e-16)
(1 2.515416007e-16 -4.39247667e-16)
(1 -5.088717098e-16 -7.780991063e-17)
(1 -3.361460077e-16 -2.717223341e-16)
(1 -1.122339778e-16 -3.865968507e-16)
(1 8.463856054e-18 -6.151839434e-16)
(1 -2.045898116e-16 -4.389193957e-16)
(1 -6.678796185e-16 -2.989176904e-16)
(1 -4.430542015e-16 -2.094759598e-16)
(1 -4.283574226e-16 -2.612927271e-16)
(1 -2.924925324e-16 -5.121398476e-16)
(1 -2.201840324e-16 -4.136042929e-16)
(1 -1.409646922e-16 -5.361271182e-16)
(1 -4.005203815e-16 1.886904268e-16)
(1 -5.874342565e-16 -3.662593169e-16)
(1 -4.266948998e-16 -1.9735107e-16)
(1 -3.297947674e-16 -2.968894881e-16)
(1 -2.582091495e-16 -1.884161357e-16)
(1 -2.501224436e-16 -3.930883317e-16)
(1 -2.245217823e-16 -2.809128584e-16)
(1 -3.976686032e-16 -2.1447912e-16)
(1 -3.897975763e-16 3.38276685e-17)
(1 -4.142621072e-16 8.319632331e-17)
(1 -4.10186875e-16 4.618423667e-17)
(1 -1.816820792e-16 -2.263639217e-16)
(1 -1.711413644e-16 -2.905135143e-16)
(1 -2.930325842e-16 -3.976361071e-16)
(1 -7.390764965e-16 -3.105090773e-16)
(1 -3.316600432e-16 1.667411371e-16)
(1 -3.802017581e-16 1.331618844e-16)
(1 -2.231663072e-16 -6.805235767e-17)
(1 -2.462177648e-16 4.715664055e-17)
(1 -1.758331088e-16 5.200574767e-17)
(1 -1.774066433e-16 -3.222704649e-17)
(1 -1.922224991e-17 -8.263682747e-17)
(1 -1.819017788e-16 -2.022667893e-16)
(1 -2.39703821e-16 -4.409983978e-16)
(1 2.143011321e-16 1.055391619e-16)
(1 -1.114934377e-16 7.918979286e-17)
(1 -3.503103077e-16 5.975519231e-17)
(1 -2.311554011e-16 1.010336337e-16)
(1 -8.560213016e-17 -2.690687539e-17)
(1 -1.975196383e-16 -5.887677461e-17)
(1 -1.919285029e-16 2.419129071e-17)
(1 4.168721578e-17 -2.129908948e-16)
(1 -1.641174191e-17 -1.423794804e-16)
(1 2.100764034e-17 -1.12964998e-16)
(1 -3.696011882e-16 2.530834403e-16)
(1 1.31303111e-16 -4.788690196e-18)
(1 -4.275283886e-17 7.873505529e-18)
(1 -7.219164032e-17 1.425508503e-17)
(1 -2.125532162e-16 5.043303314e-17)
(1 -4.293118326e-17 4.810249539e-17)
(1 -6.833768407e-17 -1.107182672e-16)
(1 -1.338160059e-16 -7.78119167e-17)
(1 -8.018246462e-17 -4.284820778e-17)
(1 1.931314949e-16 -2.290585748e-16)
(1 6.086426967e-17 -1.914593765e-16)
(1 1.056003634e-16 4.302658204e-16)
(1 -9.855919096e-17 2.614522604e-17)
(1 -2.002319213e-16 -2.301863431e-16)
(1 -7.274259173e-17 -2.061300084e-16)
(1 -2.317331063e-16 1.664792738e-18)
(1 -1.223000536e-16 -9.108605567e-18)
(1 -8.483092811e-17 -9.494959032e-17)
(1 -1.6634751e-16 -2.935750604e-16)
(1 -9.341653841e-17 -2.567081697e-16)
(1 -2.066271463e-16 -4.791045778e-17)
(1 -7.363422071e-17 -7.978191862e-18)
(1 2.527863894e-16 -1.368762951e-16)
(1 -2.496153697e-16 -3.136601975e-17)
(1 -2.05699349e-16 -1.305100871e-16)
(1 -1.805809776e-16 -5.895269105e-16)
(1 5.38087622e-18 -6.641741111e-16)
(1 -1.259757917e-16 -2.633196628e-16)
(1 -3.853219828e-17 -3.890151009e-16)
(1 -5.450740368e-16 -4.081578808e-16)
(1 3.959026325e-18 -6.691164374e-16)
(1 -1.5139694e-16 -3.948835909e-16)
(1 1.591933836e-16 -4.947170569e-16)
(1 -5.083652407e-16 -1.87238525e-16)
(1 -2.625053884e-16 -3.119708776e-16)
(1 -1.159812511e-16 -3.875202675e-16)
(1 9.077435811e-17 -6.075922942e-16)
(1 -1.183112292e-16 -3.609240092e-16)
(1 -4.52402707e-16 -2.253298729e-16)
(1 -4.491835874e-16 -2.28201265e-16)
(1 -3.261584168e-16 -3.924855896e-16)
(1 -2.289082827e-16 -6.154795554e-16)
(1 -3.084456374e-16 -4.130959962e-16)
(1 9.394548869e-17 -5.530056234e-16)
(1 -3.98797135e-16 7.081592033e-17)
(1 -5.919020453e-16 -2.856448507e-16)
(1 -3.886160524e-16 -2.359863177e-16)
(1 -3.614687759e-16 -4.8821848e-16)
(1 -3.198777145e-16 -3.771508365e-16)
(1 -3.861748032e-17 -4.036386687e-16)
(1 5.388890557e-17 -2.878112176e-16)
(1 -4.044857505e-16 -2.257395895e-16)
(1 -2.631517115e-16 1.666896971e-17)
(1 -4.806318269e-16 -4.810600515e-17)
(1 -4.156576433e-16 -1.304319656e-16)
(1 -1.992710666e-16 -2.690955817e-16)
(1 -2.426754966e-16 -4.792177331e-16)
(1 -2.88011299e-16 -3.931493897e-16)
(1 -4.884585846e-16 -2.715927843e-16)
(1 -7.550658454e-16 1.193370699e-16)
(1 -4.901462144e-16 -1.066293669e-16)
(1 -2.703638707e-16 -9.937418474e-17)
(1 -3.766889065e-16 6.268556094e-17)
(1 -2.036098854e-16 -2.577998531e-18)
(1 -2.02280844e-16 -2.047733379e-16)
(1 -3.741026906e-17 -2.19165763e-16)
(1 -4.912111114e-16 -2.209977321e-16)
(1 -2.633592534e-16 -7.459927872e-16)
(1 -1.146833512e-16 1.715175105e-16)
(1 -1.640861005e-16 2.000604582e-18)
(1 -4.235596696e-16 1.293789481e-16)
(1 -3.867503795e-16 8.339964637e-17)
(1 -2.150579333e-16 -1.76598978e-16)
(1 -3.368315528e-16 -2.080424352e-16)
(1 -3.13977233e-16 -2.596752591e-16)
(1 -4.964850013e-17 -1.943516721e-16)
(1 -1.180525807e-16 -1.618285814e-16)
(1 -2.070028806e-16 -4.49700693e-16)
(1 -2.375995276e-16 1.739634824e-16)
(1 1.427206243e-16 6.400356601e-17)
(1 -9.915548141e-17 1.232456637e-16)
(1 -1.294352685e-16 4.229142441e-17)
(1 -1.813881415e-16 2.884334294e-17)
(1 -1.506767873e-16 -4.866616624e-17)
(1 -2.596563081e-16 -1.319786864e-17)
(1 -1.969745962e-16 -1.059748778e-16)
(1 -9.237130194e-18 -2.056144614e-16)
(1 9.06844493e-20 -1.563694439e-16)
(1 -6.005071132e-18 -3.29271504e-16)
(1 -1.71114032e-16 4.89426061e-16)
(1 -8.566268923e-17 -3.778821886e-17)
(1 2.550576965e-17 -4.702064265e-17)
(1 1.834707802e-17 8.155743891e-17)
(1 -1.643256184e-16 3.985090509e-17)
(1 -1.408613969e-16 -3.990027135e-18)
(1 -6.999673462e-17 -7.428847339e-17)
(1 -2.15767617e-16 -2.063181496e-16)
(1 -7.602175616e-17 -1.491025071e-16)
(1 1.108690853e-18 -8.791846575e-17)
(1 3.065031612e-17 -1.002337043e-16)
(1 2.756618587e-16 -2.416253086e-16)
(1 2.768852955e-16 2.09335164e-16)
(1 -1.599338893e-17 1.700314818e-16)
(1 -5.538918059e-17 -2.306194581e-17)
(1 1.680476142e-16 -7.488794532e-18)
(1 -5.015851563e-17 1.067304964e-16)
(1 -1.419557085e-16 3.097612626e-17)
(1 -2.213014112e-16 -2.360994009e-16)
(1 4.118876987e-18 -2.335017367e-16)
(1 -6.476861534e-17 5.839346348e-18)
(1 -1.534956579e-16 -3.948239208e-17)
(1 -6.042717489e-17 -2.0888718e-16)
(1 6.877157527e-18 6.679846478e-17)
(1 2.942803621e-16 -5.078771834e-17)
(1 1.159444268e-17 3.022846564e-16)
(1 -1.782589903e-16 7.911416164e-17)
(1 -1.153713693e-16 -1.314642008e-16)
(1 -1.237884949e-16 -5.550492492e-16)
(1 -2.914615991e-16 -1.144532429e-16)
(1 1.221013096e-17 -2.991813501e-16)
(1 -5.660170112e-16 -2.52087231e-16)
(1 5.315790134e-17 -5.815521269e-16)
(1 -5.109921957e-17 -2.564542396e-16)
(1 2.030281243e-17 -4.011043254e-16)
(1 -4.985532892e-16 -3.11845857e-16)
(1 -2.407817511e-16 -4.725373366e-16)
(1 -1.094633322e-16 -5.1812273e-16)
(1 -4.906003079e-17 -4.384022815e-16)
(1 2.948103333e-17 -4.102995011e-16)
(1 -3.87484291e-16 -1.897066539e-16)
(1 -3.590320516e-16 -2.384589856e-16)
(1 -2.32411038e-16 -3.276524375e-16)
(1 -8.352432208e-17 -4.814186554e-16)
(1 -1.227822461e-16 -3.830617404e-16)
(1 2.098069249e-16 -5.568439651e-16)
(1 -4.127192163e-16 -3.96542662e-17)
(1 -5.150775849e-16 -1.964336825e-16)
(1 -4.235281422e-16 -3.445918763e-16)
(1 -3.048922397e-16 -6.900091856e-16)
(1 -2.159596017e-16 -3.882149051e-16)
(1 8.051452553e-17 -3.225060843e-16)
(1 1.044932903e-16 -3.636186192e-16)
(1 -4.361978012e-16 -6.276520433e-17)
(1 -2.157555447e-16 -7.945885556e-18)
(1 -4.540730678e-16 -1.990759101e-16)
(1 -3.704882783e-16 -2.513615925e-16)
(1 -1.884500585e-16 -3.247548503e-16)
(1 -2.296743179e-16 -4.488692745e-16)
(1 -1.120748627e-16 -3.687696966e-16)
(1 -2.029876574e-16 -2.006574316e-16)
(1 -1.062569975e-15 6.552138488e-17)
(1 -4.940310445e-16 -2.666404432e-16)
(1 -3.114064056e-16 -3.440355331e-17)
(1 -4.046050883e-16 -5.86264399e-17)
(1 -1.717073503e-16 -1.283493084e-16)
(1 -2.782005661e-16 -3.148584779e-16)
(1 -1.685364867e-16 -3.825527223e-16)
(1 -3.807775727e-16 -2.71801031e-16)
(1 -2.015967924e-16 -6.857564467e-16)
(1 -3.990019932e-16 2.369282551e-16)
(1 -2.973643897e-16 6.336340488e-17)
(1 -3.73306225e-16 1.444376797e-16)
(1 -3.475271758e-16 4.460536604e-17)
(1 -4.289730101e-16 -1.663101296e-16)
(1 -3.430986574e-16 -4.542485741e-16)
(1 -3.217266044e-16 -3.924673091e-16)
(1 -1.967901904e-16 -1.431859856e-16)
(1 -1.211155544e-16 -3.024179337e-16)
(1 -2.006617748e-16 -5.039475769e-16)
(1 -3.607938453e-17 1.31730571e-16)
(1 -1.234664638e-16 1.395640479e-16)
(1 -3.42222784e-16 1.183527444e-16)
(1 -2.178776768e-16 -7.745166391e-17)
(1 -3.336617315e-16 -1.641518587e-17)
(1 -3.212999885e-16 -3.350276909e-16)
(1 -4.830755084e-16 -2.481173814e-16)
(1 -3.176683432e-16 -2.352456575e-16)
(1 -5.00060645e-17 -3.003335446e-16)
(1 -1.131389664e-16 -1.857808703e-16)
(1 1.610527537e-17 -3.5731278e-16)
(1 -2.68976964e-16 2.905508648e-16)
(1 -9.775253377e-17 -9.11279981e-17)
(1 2.902828564e-17 9.152864874e-17)
(1 -8.111629012e-17 2.431533275e-16)
(1 -2.30807888e-16 -1.447619291e-18)
(1 -2.142779323e-16 -5.211658238e-17)
(1 -7.860826942e-17 -1.86489872e-17)
(1 -2.546149567e-16 -9.868375369e-17)
(1 -7.050686512e-17 -1.395587334e-16)
(1 3.6059753e-17 -1.604090945e-16)
(1 -4.811171457e-17 -1.486476452e-16)
(1 1.858203998e-16 -2.897149646e-16)
(1 2.500588098e-16 2.363994188e-16)
(1 -2.06702028e-16 3.217090961e-16)
(1 -4.976195272e-17 -1.630618544e-17)
(1 9.244158971e-17 -1.673450156e-17)
(1 -6.687260304e-17 8.818148021e-18)
(1 -1.173881467e-16 7.275387566e-17)
(1 -1.592187468e-16 -9.400502248e-17)
(1 -3.183587251e-17 -1.342984666e-16)
(1 -1.345860935e-16 -4.611571175e-17)
(1 -1.447832747e-16 5.194961796e-17)
(1 2.129515014e-16 -2.356729901e-16)
(1 1.542349048e-16 -1.056472224e-16)
(1 2.08202146e-16 -5.748060527e-17)
(1 3.245655255e-17 1.287917187e-16)
(1 -1.49652165e-17 3.11024136e-17)
(1 1.109756421e-16 -7.668476595e-17)
(1 5.327510268e-17 2.415662272e-16)
(1 2.390427552e-16 -7.744190304e-17)
(1 -1.60805651e-16 5.963912686e-17)
(1 -1.661764373e-16 -6.359743629e-17)
(1 -9.816893214e-17 3.246648358e-17)
(1 2.670161267e-16 -1.744344697e-16)
(1 -9.634784534e-17 2.534177731e-17)
(1 -1.479239245e-17 1.971563065e-17)
(1 -1.876626787e-16 7.875026913e-17)
(1 1.434621414e-16 -5.243450561e-17)
(1 2.624930974e-16 5.94943715e-17)
(1 7.610548855e-17 4.539832882e-16)
(1 -4.442221792e-17 1.41582353e-16)
(1 -1.387435267e-16 1.273406578e-16)
(1 -2.460799445e-16 -1.653350196e-16)
(1 -2.44790802e-16 4.652966332e-17)
(1 2.180008358e-17 -1.408609441e-16)
(1 -4.423671227e-16 -6.454446881e-17)
(1 -5.280300547e-17 -2.893832641e-16)
(1 3.057968584e-17 -9.42644771e-17)
(1 7.704531454e-17 -2.440233347e-16)
(1 -3.065027667e-16 -3.608863758e-16)
(1 -3.107229428e-16 -3.380743024e-16)
(1 -8.296110539e-17 -4.801842578e-16)
(1 -2.204986496e-16 -2.368816711e-16)
(1 1.465497078e-16 -3.070486301e-16)
(1 -3.388885176e-16 -8.150872691e-17)
(1 -2.129056535e-16 -3.161916694e-16)
(1 -1.876022911e-16 -4.693485637e-16)
(1 -1.078044354e-16 -4.449003577e-16)
(1 -7.412047209e-17 -3.428799473e-16)
(1 2.324418683e-16 -4.33677666e-16)
(1 -3.213834184e-16 -1.733827203e-16)
(1 -3.669863498e-16 -2.005941479e-16)
(1 -3.968206899e-16 -3.478714314e-16)
(1 -2.170467876e-16 -5.772735699e-16)
(1 -8.590000899e-17 -3.802542239e-16)
(1 7.935501104e-17 -3.927183603e-16)
(1 9.097441545e-17 -4.178600898e-16)
(1 -5.398689125e-16 3.275069846e-17)
(1 -1.405515151e-16 -2.230558235e-16)
(1 -5.080806429e-16 -1.596745437e-16)
(1 -2.066343222e-16 -4.540945936e-16)
(1 -1.778912298e-16 -2.270815113e-16)
(1 -3.795031812e-17 -3.623587847e-16)
(1 -8.33959368e-17 -3.255512228e-16)
(1 1.127332387e-16 -1.496289003e-16)
(1 -9.851445302e-16 8.473976346e-17)
(1 -3.833053833e-16 -1.463744704e-16)
(1 -2.744635021e-16 -1.767896885e-17)
(1 -3.646198205e-16 -2.310058324e-16)
(1 -1.27829814e-16 -3.330817517e-16)
(1 -3.195437612e-16 -3.616270568e-16)
(1 -2.850384603e-16 -3.420048717e-16)
(1 -8.699509713e-17 -3.527451244e-16)
(1 -1.365024066e-16 -4.524246441e-16)
(1 -6.823734341e-16 3.06777238e-16)
(1 -5.883544596e-16 1.407563768e-17)
(1 -3.982614832e-16 5.688465361e-17)
(1 -1.552473645e-16 -1.421967396e-17)
(1 -3.90816436e-16 -1.146538276e-17)
(1 -1.88959055e-16 -3.683776131e-16)
(1 -6.552565956e-17 -4.235412172e-16)
(1 -2.842580787e-16 -6.752073772e-17)
(1 -7.187810554e-17 -3.563283656e-16)
(1 -9.930874446e-17 -5.072853894e-16)
(1 -4.500402646e-17 2.248157754e-16)
(1 -3.520268841e-16 1.514760138e-16)
(1 -4.796114913e-16 1.260965786e-16)
(1 -2.634445872e-16 -1.416407108e-16)
(1 -4.597355392e-16 -4.880081823e-17)
(1 -4.461905306e-16 -4.156150397e-16)
(1 -4.225112499e-16 -3.892981353e-16)
(1 -3.150070884e-16 -3.21562258e-16)
(1 -2.022106815e-16 -4.114442707e-16)
(1 -1.391311179e-16 -3.545722958e-16)
(1 -6.792672931e-17 -3.986426443e-16)
(1 -9.09824437e-17 3.212760118e-17)
(1 -2.11880331e-16 -2.317777061e-17)
(1 -1.13455658e-16 2.231535523e-16)
(1 -7.767564333e-17 2.398802182e-16)
(1 -2.536957694e-16 -5.770815523e-17)
(1 -2.661716668e-16 -1.314337313e-16)
(1 -1.301854152e-16 -5.872269681e-17)
(1 -1.589347088e-16 -6.676762823e-17)
(1 -1.672618801e-16 -1.332223268e-16)
(1 -1.298220876e-17 -2.932573009e-16)
(1 -1.614184198e-17 -1.958605202e-16)
(1 -5.609828321e-19 -1.700546504e-16)
(1 8.750865829e-17 2.300479326e-16)
(1 -1.842091164e-16 2.458957326e-16)
(1 -1.098434618e-16 2.003046301e-17)
(1 5.213232807e-17 5.334292858e-18)
(1 -1.533069898e-16 -2.078318582e-17)
(1 -1.593733724e-16 1.461926311e-17)
(1 -8.920615352e-17 4.00133798e-17)
(1 -1.044637826e-16 5.538512602e-17)
(1 -1.656978922e-16 -8.201559891e-17)
(1 -5.540685094e-17 -7.346202125e-18)
(1 1.348938991e-16 -1.827113008e-16)
(1 1.396443854e-16 -7.704977643e-17)
(1 2.266080357e-16 -2.326644924e-16)
(1 2.116556461e-16 2.594662558e-16)
(1 4.050785569e-18 1.020342433e-16)
(1 -3.849696686e-17 1.808209199e-17)
(1 -3.777477792e-17 1.143447309e-16)
(1 1.916353531e-17 -9.002099028e-17)
(1 -1.168273181e-16 6.14467868e-17)
(1 -8.913784631e-17 -7.518657919e-17)
(1 -1.327904784e-16 -5.330163412e-18)
(1 1.21895295e-16 -6.317916312e-17)
(1 -1.357927412e-16 -1.454947088e-17)
(1 -9.572222456e-18 -1.830410543e-17)
(1 4.007616253e-17 -4.008674399e-17)
(1 2.186991509e-16 -1.161317524e-16)
(1 2.209770647e-16 1.967450396e-17)
(1 1.920065551e-17 -3.709480145e-17)
(1 -1.962359987e-16 1.362909776e-16)
(1 2.353174166e-16 -1.017676899e-16)
(1 -1.039028102e-16 5.480486955e-17)
(1 7.363269528e-18 -3.620775212e-17)
(1 5.206063552e-18 1.160345268e-16)
(1 2.9626795e-17 -2.595247128e-16)
(1 -1.677813676e-16 -7.434008139e-17)
(1 -6.362169575e-17 1.63994871e-16)
(1 1.73567884e-16 -7.953958671e-17)
(1 -1.278163065e-16 5.076615129e-17)
(1 1.166162066e-16 1.660893626e-16)
(1 1.113895417e-18 -2.190882362e-17)
(1 1.031746347e-17 -1.961218249e-16)
(1 2.156368146e-17 2.192367381e-16)
(1 1.225623574e-16 5.990520241e-16)
(1 1.959033478e-16 2.394339796e-16)
(1 -1.484662394e-16 3.36497131e-16)
(1 -1.755658361e-16 1.692840615e-16)
(1 -1.068577701e-16 1.054239305e-16)
(1 3.274758912e-18 1.217619042e-16)
(1 -1.538337577e-16 7.604228602e-17)
(1 -2.412128697e-16 -3.598274199e-17)
(1 -1.259240399e-17 1.523259654e-18)
(1 6.585492742e-17 7.116232642e-17)
(1 -1.372627588e-17 -9.545486861e-17)
(1 -6.857687084e-17 -4.912919708e-17)
(1 -4.103624621e-17 -1.239406136e-16)
(1 -1.444764981e-16 3.239631595e-17)
(1 2.690494988e-16 -1.704968327e-16)
(1 -1.477098205e-16 -3.955053071e-17)
(1 -1.111268989e-16 -2.325110599e-16)
(1 -2.757826306e-16 -4.152481016e-16)
(1 -9.081715572e-17 -4.143416767e-16)
(1 -3.781231199e-17 -2.920925262e-16)
(1 4.523589567e-17 -1.790771711e-16)
(1 -1.260615404e-16 -2.950263335e-16)
(1 -3.11322267e-16 -1.914530788e-16)
(1 -1.606287908e-16 -5.143559987e-16)
(1 -2.862197138e-16 -3.901094588e-16)
(1 -5.552088023e-17 -2.979885716e-16)
(1 4.11506577e-17 -4.353699754e-16)
(1 2.516492364e-18 -4.89838683e-16)
(1 -5.25156279e-16 -2.32298572e-17)
(1 -2.040625705e-16 -4.669540717e-16)
(1 -5.993917924e-16 -1.408067437e-16)
(1 -1.517738175e-16 -5.308073927e-16)
(1 -2.737377668e-16 -2.965139074e-16)
(1 1.284932776e-17 -5.376781239e-16)
(1 -1.066121531e-16 -3.818545875e-16)
(1 2.469486363e-16 -2.152313834e-16)
(1 -5.532197451e-16 8.610919598e-17)
(1 -4.096939387e-16 -4.096754467e-17)
(1 -2.502036246e-16 -6.368535715e-17)
(1 -2.367259837e-16 -3.678232948e-16)
(1 -1.195520712e-16 -3.105059367e-16)
(1 -2.167099954e-16 -3.985559462e-16)
(1 -2.880517725e-16 -3.150104034e-16)
(1 1.357164214e-16 -3.284180001e-16)
(1 -5.974530201e-17 9.728630049e-17)
(1 -5.524774527e-16 3.484323766e-16)
(1 -5.818375596e-16 -5.968084173e-17)
(1 -4.880652035e-16 -8.108724093e-17)
(1 -8.400254692e-17 -1.618750938e-16)
(1 -3.544266496e-16 -3.097849814e-17)
(1 -7.559165466e-17 -3.199443755e-16)
(1 -7.511425089e-17 -4.426500976e-16)
(1 -2.866415124e-16 -8.981129368e-17)
(1 2.821417765e-17 -2.53123322e-16)
(1 2.745873995e-18 -3.772284465e-16)
(1 -1.515592616e-16 3.151261907e-16)
(1 -4.591508927e-16 1.90550506e-16)
(1 -5.667939502e-16 2.794382178e-17)
(1 -4.231452781e-16 -3.765620595e-17)
(1 -2.926370987e-16 -5.633805497e-17)
(1 -3.138792387e-16 -2.071880836e-16)
(1 -6.603261087e-17 -2.716806403e-16)
(1 -1.623398462e-16 -3.238551448e-16)
(1 -2.073208236e-16 -3.812317796e-16)
(1 -5.802473067e-17 -3.955305764e-16)
(1 -2.86395825e-17 -3.530086335e-16)
(1 8.147369293e-17 4.542876052e-17)
(1 -2.371974555e-16 2.185252772e-16)
(1 -2.575238133e-16 3.870006118e-16)
(1 -5.335374931e-17 6.0545283e-17)
(1 -3.670712698e-16 -5.227878199e-17)
(1 -2.0267407e-16 -1.707455764e-16)
(1 -1.553651175e-16 -1.52159675e-16)
(1 -6.935263096e-17 -8.06258216e-17)
(1 -2.602970129e-16 -1.777905095e-16)
(1 -6.772392155e-17 -3.490066956e-16)
(1 2.367051114e-17 -2.766982575e-16)
(1 -3.785888508e-17 -1.949945629e-16)
(1 -8.160296834e-17 1.489587117e-16)
(1 -8.508988579e-17 1.074748602e-16)
(1 -6.394919142e-17 1.175373684e-16)
(1 -9.264902195e-17 1.108251434e-16)
(1 -1.440889705e-16 4.983396922e-17)
(1 -1.521302075e-16 -5.340939131e-17)
(1 -4.113780917e-17 2.506041833e-17)
(1 -6.412496368e-17 5.980627493e-17)
(1 -1.716775806e-16 -9.023489352e-17)
(1 -9.237008206e-17 -1.089005473e-16)
(1 1.254835924e-17 -1.80321168e-16)
(1 7.458068586e-17 -1.021225792e-16)
(1 8.749042461e-17 -2.834528106e-16)
(1 1.272810683e-17 1.543005472e-16)
(1 -1.051113675e-17 1.767600148e-16)
(1 1.391437546e-17 2.039594672e-16)
(1 -1.228880158e-17 1.014720066e-16)
(1 -8.939972794e-17 -5.213146666e-17)
(1 -1.104830281e-16 1.004803443e-16)
(1 -5.477948444e-17 5.111387727e-17)
(1 -1.348146589e-16 -1.232826757e-17)
(1 -2.506936336e-17 -3.388010992e-17)