/*--------------------------------*- C++ -*----------------------------------*\
| =========                 |                                                 |
| \\      /  F ield         | OpenFOAM: The Open Source CFD Toolbox           |
|  \\    /   O peration     | Version:  2212                                  |
|   \\  /    A nd           | Website:  www.openfoam.com                      |
|    \\/     M anipulation  |                                                 |
\*---------------------------------------------------------------------------*/
FoamFile
{
    version     2.0;
    format      ascii;
    arch        "LSB;label=32;scalar=64";
    class       volScalarField;
    location    "1.8";
    object      p;
}
// * * * * * * * * * * * * * * * * * * * * * * * * * * * * * * * * * * * * * //

dimensions      [0 2 -2 0 0 0 0];

internalField   nonuniform List<scalar> 
42875
(
-1.127242126e-14
-1.110899653e-14
-1.108715336e-14
-1.162200285e-14
-1.071906448e-14
-1.069360553e-14
-1.125523334e-14
-1.067177235e-14
-1.171305915e-14
-1.117398648e-14
-1.091643072e-14
-1.04471046e-14
-1.068457212e-14
-1.040066657e-14
-1.064266069e-14
-1.137164151e-14
-1.065788367e-14
-1.162015641e-14
-1.143560922e-14
-1.134234886e-14
-1.080645879e-14
-1.085109651e-14
-1.058414874e-14
-1.065118603e-14
-1.048001426e-14
-1.12835257e-14
-1.028370213e-14
-1.058777997e-14
-1.091586376e-14
-1.199084519e-14
-1.013729836e-14
-1.154214421e-14
-1.14288312e-14
-1.194842071e-14
-1.133148889e-14
-1.090200965e-14
-1.054287665e-14
-1.056807921e-14
-1.11859638e-14
-1.084623187e-14
-1.084527721e-14
-1.034116751e-14
-1.073061715e-14
-1.087119458e-14
-1.162317551e-14
-1.08137113e-14
-1.047856678e-14
-1.088044583e-14
-1.150554981e-14
-1.182792643e-14
-1.102812502e-14
-1.127716509e-14
-1.151966658e-14
-1.168976857e-14
-1.160910918e-14
-1.162145482e-14
-1.110500752e-14
-1.105769716e-14
-1.087707261e-14
-1.086238271e-14
-1.076528767e-14
-1.046091446e-14
-1.074403505e-14
-1.08768782e-14
-1.063847844e-14
-1.019666536e-14
-1.08189387e-14
-1.079063102e-14
-1.087469147e-14
-1.118713361e-14
-1.156766171e-14
-1.06026616e-14
-1.116644179e-14
-1.081495236e-14
-1.159547195e-14
-1.177570438e-14
-1.239989381e-14
-1.107712548e-14
-1.122159371e-14
-1.124043327e-14
-1.149261329e-14
-1.198376095e-14
-1.208773672e-14
-1.174131782e-14
-1.076215986e-14
-1.119406431e-14
-1.091741941e-14
-1.111374742e-14
-1.12364331e-14
-1.059472144e-14
-1.099828198e-14
-1.061519477e-14
-1.053392706e-14
-1.021658741e-14
-1.107350164e-14
-1.111491531e-14
-1.065721017e-14
-1.01701043e-14
-1.108702301e-14
-1.06484674e-14
-1.083530133e-14
-1.086801293e-14
-1.12190028e-14
-1.119621875e-14
-1.200329791e-14
-1.07955288e-14
-1.109119955e-14
-1.126848945e-14
-1.150074871e-14
-1.181214804e-14
-1.214523337e-14
-1.262449214e-14
-1.100603165e-14
-1.14806621e-14
-1.123168917e-14
-1.198635257e-14
-1.184778101e-14
-1.187918925e-14
-1.210351744e-14
-1.168986103e-14
-1.029831595e-14
-1.063820237e-14
-1.06629635e-14
-1.079873795e-14
-1.023361985e-14
-1.080880723e-14
-1.102530767e-14
-1.138956251e-14
-1.092252744e-14
-1.088605434e-14
-1.101565984e-14
-1.10567442e-14
-1.07881212e-14
-1.020521873e-14
-1.022661524e-14
-1.098000354e-14
-1.097161377e-14
-1.105439196e-14
-1.036813013e-14
-1.030808336e-14
-1.1202132e-14
-1.082584853e-14
-1.08400797e-14
-1.069926578e-14
-1.138832807e-14
-1.130942349e-14
-1.142771054e-14
-1.189891687e-14
-1.134988047e-14
-1.11917352e-14
-1.09667751e-14
-1.115909743e-14
-1.160034942e-14
-1.214531073e-14
-1.262326186e-14
-1.294322724e-14
-1.168201013e-14
-1.098962542e-14
-1.184382429e-14
-1.196781325e-14
-1.191150584e-14
-1.225134759e-14
-1.200833986e-14
-1.205648879e-14
-1.216696403e-14
-1.012334839e-14
-1.026726887e-14
-1.018299573e-14
-1.112561396e-14
-1.034872037e-14
-1.104990163e-14
-1.078108613e-14
-1.036861875e-14
-1.072137552e-14
-1.085737871e-14
-1.118798174e-14
-1.096494797e-14
-1.130302159e-14
-1.100927701e-14
-1.075241455e-14
-1.116249561e-14
-1.132796099e-14
-1.091838817e-14
-1.063479385e-14
-1.047898562e-14
-1.11025238e-14
-1.111620841e-14
-1.042025566e-14
-1.09444074e-14
-1.082725086e-14
-1.079134898e-14
-1.066340158e-14
-1.112965911e-14
-1.110910055e-14
-1.059861753e-14
-1.069735697e-14
-1.055826048e-14
-1.120230938e-14
-1.171784164e-14
-1.149411561e-14
-1.230776065e-14
-1.117022563e-14
-1.123272297e-14
-1.100557833e-14
-1.129417009e-14
-1.175600191e-14
-1.19861273e-14
-1.238837243e-14
-1.245332385e-14
-1.234352792e-14
-1.186013909e-14
-1.161736982e-14
-1.177318277e-14
-1.156773946e-14
-1.159839736e-14
-1.128814365e-14
-1.209366809e-14
-1.157591745e-14
-1.245972846e-14
-1.217503847e-14
-9.41052325e-15
-1.020807992e-14
-9.719764278e-15
-1.027666129e-14
-1.041388249e-14
-9.939027924e-15
-1.099241733e-14
-1.045767723e-14
-1.045472882e-14
-1.100531662e-14
-1.108511419e-14
-1.050465899e-14
-1.062250037e-14
-1.071485808e-14
-1.101212135e-14
-1.129880649e-14
-1.092520841e-14
-1.10576456e-14
-1.116226219e-14
-1.118617691e-14
-1.01156581e-14
-1.088911488e-14
-1.087116496e-14
-1.096334277e-14
-1.06273882e-14
-1.065108647e-14
-1.071102046e-14
-1.11357388e-14
-1.091643549e-14
-1.083300972e-14
-1.081691952e-14
-1.077333264e-14
-1.110219506e-14
-1.099230289e-14
-1.066407872e-14
-1.072823918e-14
-1.080636135e-14
-1.129573308e-14
-1.076616229e-14
-1.077249575e-14
-1.129853003e-14
-1.151890233e-14
-1.165933374e-14
-1.150086533e-14
-1.208981201e-14
-1.161196568e-14
-1.100124884e-14
-1.087780906e-14
-1.116758874e-14
-1.169462763e-14
-1.214202717e-14
-1.232821941e-14
-1.236616612e-14
-1.193635338e-14
-1.178300463e-14
-1.192422828e-14
-1.222400144e-14
-1.219146529e-14
-1.08030758e-14
-1.205748246e-14
-1.144156882e-14
-1.193576787e-14
-1.194402662e-14
-1.16649642e-14
-1.231353276e-14
-1.243809248e-14
-8.662792134e-15
-9.716937792e-15
-9.397363894e-15
-9.99610821e-15
-1.027390102e-14
-9.467158812e-15
-1.066565111e-14
-1.025523277e-14
-1.045903806e-14
-1.02457644e-14
-1.049830323e-14
-1.050737746e-14
-1.071793964e-14
-1.063755136e-14
-1.066181025e-14
-1.065506056e-14
-1.030886602e-14
-1.055840968e-14
-1.073777724e-14
-1.079015013e-14
-1.103443378e-14
-1.058224887e-14
-1.112035021e-14
-1.115366628e-14
-1.104554359e-14
-1.075674144e-14
-1.098914414e-14
-1.047458786e-14
-1.116974714e-14
-1.140831416e-14
-1.088081152e-14
-1.11313741e-14
-1.107165751e-14
-1.083869952e-14
-1.042082935e-14
-1.096249395e-14
-1.08649027e-14
-1.091094456e-14
-1.061032207e-14
-1.05141045e-14
-1.062385746e-14
-1.101093525e-14
-1.066024655e-14
-1.0951743e-14
-1.117183905e-14
-1.098392821e-14
-1.083920294e-14
-1.073991971e-14
-1.102550956e-14
-1.119899328e-14
-1.137265186e-14
-1.158178815e-14
-1.167712983e-14
-1.161425335e-14
-1.192317677e-14
-1.125112524e-14
-1.093413973e-14
-1.132563224e-14
-1.127805862e-14
-1.117591967e-14
-1.179160655e-14
-1.207077215e-14
-1.236129166e-14
-1.248912446e-14
-1.165674308e-14
-1.168782879e-14
-1.182779254e-14
-1.276193127e-14
-1.178836442e-14
-1.121130856e-14
-1.142761955e-14
-1.127630982e-14
-1.233370739e-14
-1.189217958e-14
-1.179594013e-14
-1.216441647e-14
-1.203262114e-14
-1.170684992e-14
-8.567426775e-15
-9.111972467e-15
-9.263173447e-15
-9.439196866e-15
-9.681292494e-15
-9.762705904e-15
-9.790271454e-15
-9.987012054e-15
-9.985105187e-15
-9.218717632e-15
-1.01643801e-14
-1.034426718e-14
-1.041199418e-14
-1.052349666e-14
-1.07266297e-14
-1.014146895e-14
-1.042657962e-14
-1.055001839e-14
-1.041755582e-14
-1.068770659e-14
-1.101826126e-14
-1.039420705e-14
-1.073631182e-14
-1.06775298e-14
-1.066638492e-14
-1.075326448e-14
-1.11101511e-14
-1.127909144e-14
-1.137155545e-14
-1.090135174e-14
-1.122199991e-14
-1.128412202e-14
-1.122317382e-14
-1.089547311e-14
-1.088271793e-14
-1.121684078e-14
-1.096250889e-14
-1.063878534e-14
-1.131073472e-14
-1.090179115e-14
-1.08033633e-14
-1.101633879e-14
-1.088840228e-14
-1.102470671e-14
-1.099979046e-14
-1.037336897e-14
-1.097536074e-14
-1.091841959e-14
-1.098573232e-14
-1.078612131e-14
-1.128801164e-14
-1.085070675e-14
-1.086722742e-14
-1.103865868e-14
-1.137820764e-14
-1.126519516e-14
-1.104669372e-14
-1.022515994e-14
-1.138930665e-14
-1.090807901e-14
-1.145449648e-14
-1.152045943e-14
-1.143380167e-14
-1.180910448e-14
-1.165577738e-14
-1.143439712e-14
-1.152410285e-14
-1.118617721e-14
-1.140393869e-14
-1.129512152e-14
-1.149579623e-14
-1.139041639e-14
-1.190844362e-14
-1.191212016e-14
-1.207989164e-14
-1.233230508e-14
-1.203891336e-14
-1.145776078e-14
-1.153844537e-14
-1.232655491e-14
-1.183013328e-14
-1.129332891e-14
-1.155459696e-14
-1.122695974e-14
-1.242735897e-14
-1.179400434e-14
-1.18749235e-14
-1.14151213e-14
-1.201442708e-14
-1.243830795e-14
-1.15713702e-14
-8.297237832e-15
-8.50453873e-15
-8.972637949e-15
-8.804354167e-15
-9.097465187e-15
-9.248922807e-15
-9.15096054e-15
-9.872459529e-15
-9.75309823e-15
-9.366102201e-15
-9.587463625e-15
-9.963278233e-15
-9.820764257e-15
-9.820029187e-15
-9.650100078e-15
-9.958477323e-15
-1.022153252e-14
-1.05942617e-14
-1.028403804e-14
-1.07420898e-14
-1.069021333e-14
-9.970515807e-15
-9.887442477e-15
-1.032116393e-14
-1.032614717e-14
-1.094782013e-14
-1.076411985e-14
-1.089880361e-14
-1.091297241e-14
-1.047326769e-14
-1.067425713e-14
-1.04365942e-14
-1.046783844e-14
-1.118496758e-14
-1.131704481e-14
-1.142609242e-14
-1.074629298e-14
-1.05516518e-14
-1.098208309e-14
-1.095656245e-14
-1.118316181e-14
-1.074516543e-14
-1.11125619e-14
-1.128907616e-14
-1.124698625e-14
-1.072290759e-14
-1.092851947e-14
-1.087459421e-14
-1.084179372e-14
-1.091274748e-14
-1.136835784e-14
-1.11232037e-14
-1.097993834e-14
-1.100816279e-14
-1.151177328e-14
-1.048614298e-14
-1.066642855e-14
-1.065455838e-14
-1.105870776e-14
-1.053205336e-14
-1.082139632e-14
-1.081671273e-14
-1.064140002e-14
-1.105451617e-14
-1.162256865e-14
-1.101765227e-14
-1.155667896e-14
-1.09548434e-14
-1.08930482e-14
-1.115602846e-14
-1.103955969e-14
-1.146424113e-14
-1.107262694e-14
-1.125259199e-14
-1.159495893e-14
-1.165508924e-14
-1.149232254e-14
-1.128083837e-14
-1.183800509e-14
-1.110747005e-14
-1.178212997e-14
-1.163361742e-14
-1.149064351e-14
-1.144813232e-14
-1.15289373e-14
-1.195990288e-14
-1.19633754e-14
-1.195353201e-14
-1.246245266e-14
-1.179710925e-14
-1.183028934e-14
-1.1653038e-14
-1.191062068e-14
-1.18670678e-14
-1.2032578e-14
-1.196239877e-14
-1.168118737e-14
-1.138222101e-14
-1.237423864e-14
-1.149081507e-14
-1.223206559e-14
-1.217201017e-14
-1.232068975e-14
-1.217542859e-14
-1.164931724e-14
-8.345894166e-15
-8.244046663e-15
-8.808364913e-15
-8.950024354e-15
-8.825540649e-15
-8.874927199e-15
-8.596712606e-15
-8.83963318e-15
-8.81926375e-15
-9.403502787e-15
-9.41499343e-15
-9.419117515e-15
-9.36126535e-15
-9.616572577e-15
-9.047173978e-15
-9.674900706e-15
-9.787347156e-15
-9.823628345e-15
-9.905624267e-15
-9.916811881e-15
-9.790456483e-15
-1.017288643e-14
-9.979595589e-15
-1.001777277e-14
-1.073814065e-14
-1.081150573e-14
-1.038005855e-14
-1.033629737e-14
-9.978290927e-15
-1.011605902e-14
-1.009684797e-14
-1.088958214e-14
-1.03489358e-14
-1.110230801e-14
-1.086054016e-14
-1.098785666e-14
-1.023053264e-14
-1.083158722e-14
-1.068722524e-14
-1.045268845e-14
-1.067554602e-14
-1.070471622e-14
-1.101393985e-14
-1.134310841e-14
-1.159098076e-14
-1.095239483e-14
-1.077949475e-14
-1.093280221e-14
-1.078764914e-14
-1.085975804e-14
-1.093283889e-14
-1.089330369e-14
-1.142470269e-14
-1.109594911e-14
-1.197402943e-14
-1.042773339e-14
-1.055686578e-14
-1.053674932e-14
-1.053292362e-14
-1.085905606e-14
-1.093389476e-14
-1.073909698e-14
-1.097987356e-14
-1.099458155e-14
-1.131106705e-14
-1.17425608e-14
-1.133881575e-14
-1.083255668e-14
-1.07232708e-14
-1.082211014e-14
-1.092623348e-14
-1.11479987e-14
-1.07573753e-14
-1.110593758e-14
-1.099757602e-14
-1.126983838e-14
-1.153190973e-14
-1.165050732e-14
-1.184807346e-14
-1.129504949e-14
-1.096063784e-14
-1.126510967e-14
-1.110223791e-14
-1.115769037e-14
-1.099252992e-14
-1.107774289e-14
-1.119289303e-14
-1.180214562e-14
-1.171899107e-14
-1.133307917e-14
-1.180399931e-14
-1.162189002e-14
-1.166338241e-14
-1.162578704e-14
-1.163426878e-14
-1.155999608e-14
-1.158156452e-14
-1.151012978e-14
-1.180217658e-14
-1.229465421e-14
-1.159213141e-14
-1.217912748e-14
-1.213025929e-14
-1.210326791e-14
-1.161537659e-14
-1.1484865e-14
-1.196787777e-14
-1.205851516e-14
-1.149500503e-14
-1.174868812e-14
-1.149392882e-14
-1.146788231e-14
-1.135969956e-14
-1.232696007e-14
-1.132389423e-14
-1.171217418e-14
-1.245790602e-14
-1.256306564e-14
-1.220294877e-14
-1.22846425e-14
-8.20460914e-15
-8.187489891e-15
-8.121519687e-15
-8.18117767e-15
-8.233853183e-15
-8.515358978e-15
-8.73191307e-15
-8.656176164e-15
-8.709477792e-15
-9.422956253e-15
-9.035061662e-15
-8.813297287e-15
-9.15710354e-15
-9.224465451e-15
-9.110286815e-15
-9.557926342e-15
-9.431050362e-15
-9.302498148e-15
-9.410290179e-15
-9.603211815e-15
-9.372141003e-15
-1.000548518e-14
-1.005314332e-14
-9.819696842e-15
-1.002072155e-14
-9.909149472e-15
-1.002793359e-14
-1.005218146e-14
-9.6785341e-15
-9.824611641e-15
-9.865680579e-15
-1.02244759e-14
-1.029078873e-14
-1.059441295e-14
-1.054449322e-14
-1.039815314e-14
-1.008124799e-14
-1.012984641e-14
-1.014728271e-14
-1.03570545e-14
-1.085803489e-14
-1.073440443e-14
-1.117718771e-14
-1.089504376e-14
-1.149791931e-14
-1.083282208e-14
-1.053791114e-14
-1.10158112e-14
-1.051792636e-14
-1.032948985e-14
-1.065563114e-14
-1.088966817e-14
-1.138434703e-14
-1.121737799e-14
-1.164283964e-14
-1.039685107e-14
-1.069959525e-14
-1.079463979e-14
-1.066799682e-14
-1.092890917e-14
-1.116021765e-14
-1.079942932e-14
-1.109959449e-14
-1.139995158e-14
-1.12918413e-14
-1.177708165e-14
-1.091637985e-14
-1.017522835e-14
-1.063148421e-14
-1.055746417e-14
-1.071595704e-14
-1.113685862e-14
-1.116636435e-14
-1.101986705e-14
-1.10589947e-14
-1.144403496e-14
-1.126702224e-14
-1.232528828e-14
-1.101741136e-14
-1.097455924e-14
-1.06136194e-14
-1.057191414e-14
-1.076770617e-14
-1.129589011e-14
-1.056586807e-14
-1.094761576e-14
-1.131028873e-14
-1.189186961e-14
-1.165902984e-14
-1.123645912e-14
-1.189965347e-14
-1.140526425e-14
-1.162744139e-14
-1.1282208e-14
-1.088217465e-14
-1.066298552e-14
-1.088798693e-14
-1.118603593e-14
-1.072807639e-14
-1.126779998e-14
-1.174919461e-14
-1.174507756e-14
-1.180131272e-14
-1.172898023e-14
-1.21237991e-14
-1.159356925e-14
-1.13986005e-14
-1.194124859e-14
-1.197760273e-14
-1.160810525e-14
-1.148864643e-14
-1.142903122e-14
-1.170647745e-14
-1.190982295e-14
-1.208476766e-14
-1.213012516e-14
-1.241436595e-14
-1.220173829e-14
-1.184428272e-14
-1.185974491e-14
-1.117010773e-14
-1.152254936e-14
-1.227570102e-14
-1.121698266e-14
-1.146075541e-14
-1.167998538e-14
-1.173871445e-14
-1.110836226e-14
-1.130752825e-14
-1.239098028e-14
-1.166259493e-14
-1.252548613e-14
-1.28570959e-14
-1.218008359e-14
-1.208681895e-14
-1.246782176e-14
-7.655578703e-15
-7.950511502e-15
-7.714367767e-15
-8.115412132e-15
-8.067154927e-15
-8.344228471e-15
-8.297118777e-15
-8.366955268e-15
-8.143979785e-15
-9.215834775e-15
-9.112811472e-15
-8.828407173e-15
-9.228454899e-15
-8.822300452e-15
-9.032025056e-15
-8.85711031e-15
-8.99118337e-15
-8.820282833e-15
-9.047895079e-15
-9.357459502e-15
-9.008064745e-15
-9.552470122e-15
-9.75968457e-15
-9.590985534e-15
-9.096169107e-15
-9.222892563e-15
-9.860600443e-15
-9.554205991e-15
-9.845536457e-15
-9.989269793e-15
-9.915505414e-15
-9.775982892e-15
-1.015344546e-14
-9.687148223e-15
-1.016546562e-14
-1.016573776e-14
-9.689013193e-15
-9.784628858e-15
-9.81223064e-15
-1.034655806e-14
-1.02115335e-14
-1.046964249e-14
-1.052605763e-14
-1.03476954e-14
-1.040760272e-14
-1.013749835e-14
-1.005513476e-14
-1.056307332e-14
-1.023041488e-14
-1.07936846e-14
-1.084488579e-14
-1.078900426e-14
-1.121829465e-14
-1.123279856e-14
-1.132381183e-14
-1.049738684e-14
-1.105608352e-14
-1.090407972e-14
-1.013563408e-14
-1.054833442e-14
-1.06739645e-14
-1.102190574e-14
-1.121966559e-14
-1.123643347e-14
-1.116524e-14
-1.202623119e-14
-1.061090542e-14
-1.043638565e-14
-1.082500889e-14
-1.047516565e-14
-1.070284666e-14
-1.061157678e-14
-1.120182628e-14
-1.099471897e-14
-1.129194697e-14
-1.1115683e-14
-1.121497476e-14
-1.213566054e-14
-1.062849163e-14
-1.071505193e-14
-1.007859329e-14
-1.07511082e-14
-1.051175231e-14
-1.091653066e-14
-1.099004558e-14
-1.150041143e-14
-1.119750493e-14
-1.14735302e-14
-1.140465678e-14
-1.192129455e-14
-1.168565329e-14
-1.092367647e-14
-1.069880358e-14
-1.069583657e-14
-1.054715117e-14
-1.087546254e-14
-1.121625884e-14
-1.094513773e-14
-1.084898426e-14
-1.114827198e-14
-1.154386083e-14
-1.153010296e-14
-1.137966579e-14
-1.150967487e-14
-1.157839821e-14
-1.077534342e-14
-1.127560787e-14
-1.118333568e-14
-1.125084779e-14
-1.089830584e-14
-1.110768048e-14
-1.129271604e-14
-1.123659904e-14
-1.092091177e-14
-1.146751117e-14
-1.211717495e-14
-1.143831467e-14
-1.144121979e-14
-1.195897095e-14
-1.193949051e-14
-1.140061933e-14
-1.205680154e-14
-1.142344191e-14
-1.194175107e-14
-1.180234082e-14
-1.176980824e-14
-1.146786438e-14
-1.160372904e-14
-1.163356138e-14
-1.164774564e-14
-1.193999331e-14
-1.258307347e-14
-1.215406928e-14
-1.249097679e-14
-1.203299692e-14
-1.237308719e-14
-1.069011367e-14
-1.110402749e-14
-1.207909781e-14
-1.168934284e-14
-1.214215096e-14
-1.119593714e-14
-1.219131984e-14
-1.099203878e-14
-1.119838752e-14
-1.109941925e-14
-1.231507996e-14
-1.210235196e-14
-1.2690493e-14
-1.225930849e-14
-1.246454603e-14
-1.252984937e-14
-1.268413182e-14
-7.268407433e-15
-7.34083236e-15
-7.739489061e-15
-7.703057179e-15
-7.950651215e-15
-8.284777827e-15
-8.125333999e-15
-8.212570149e-15
-7.976942019e-15
-9.04941356e-15
-8.4528936e-15
-8.592769466e-15
-8.420053006e-15
-8.686532675e-15
-8.960448077e-15
-8.821361516e-15
-9.065001197e-15
-8.805854791e-15
-9.16363815e-15
-8.759984983e-15
-9.692493997e-15
-8.668988863e-15
-8.909211198e-15
-9.214187194e-15
-9.133351805e-15
-9.093112084e-15
-9.400108163e-15
-8.748553603e-15
-9.109316733e-15
-9.539668099e-15
-9.586980587e-15
-9.42708724e-15
-9.315083646e-15
-9.301217258e-15
-9.681995712e-15
-9.780210925e-15
-9.879335851e-15
-9.745779246e-15
-9.895364346e-15
-9.899858815e-15
-9.843172959e-15
-9.914759207e-15
-9.926234716e-15
-9.964329377e-15
-9.900378227e-15
-9.508481241e-15
-9.83472572e-15
-9.722092521e-15
-9.704106004e-15
-1.019446076e-14
-1.059590388e-14
-1.038494885e-14
-1.032353503e-14
-1.081748276e-14
-1.035555632e-14
-9.469794011e-15
-1.040691328e-14
-1.033623731e-14
-1.040506214e-14
-1.057710755e-14
-1.046796724e-14
-1.096371052e-14
-1.08748036e-14
-1.091211835e-14
-1.130731918e-14
-1.125334073e-14
-1.0060242e-14
-1.055005677e-14
-1.111482566e-14
-1.087102003e-14
-1.051667582e-14
-1.049572187e-14
-1.083030835e-14
-1.131899189e-14
-1.089590735e-14
-1.142528512e-14
-1.139293915e-14
-1.169599239e-14
-1.053719049e-14
-1.072731133e-14
-1.048288355e-14
-1.070859632e-14
-1.070961509e-14
-1.053131335e-14
-1.102376984e-14
-1.144577146e-14
-1.131839096e-14
-1.115321325e-14
-1.12128946e-14
-1.169982624e-14
-1.163439673e-14
-1.067306711e-14
-1.04347623e-14
-1.029078881e-14
-1.031010399e-14
-1.102655252e-14
-1.050823999e-14
-1.117446821e-14
-1.143992744e-14
-1.136892079e-14
-1.123507688e-14
-1.181822335e-14
-1.109512284e-14
-1.145496216e-14
-1.150763575e-14
-1.047172039e-14
-1.105880392e-14
-1.048183335e-14
-1.067910112e-14
-1.081489535e-14
-1.11062459e-14
-1.069474887e-14
-1.097526269e-14
-1.067403957e-14
-1.136396658e-14
-1.133877548e-14
-1.117183874e-14
-1.12830371e-14
-1.19095125e-14
-1.183708816e-14
-1.080160495e-14
-1.104774049e-14
-1.087987689e-14
-1.139860518e-14
-1.110760591e-14
-1.114526929e-14
-1.124009417e-14
-1.116955317e-14
-1.105612139e-14
-1.112927747e-14
-1.143450024e-14
-1.174838901e-14
-1.141745077e-14
-1.163064908e-14
-1.190011669e-14
-1.166326379e-14
-1.128198997e-14
-1.158722856e-14
-1.202620568e-14
-1.159168065e-14
-1.163584685e-14
-1.168165756e-14
-1.141599369e-14
-1.180829393e-14
-1.175251805e-14
-1.199644863e-14
-1.140821177e-14
-1.2006913e-14
-1.256575465e-14
-1.25280186e-14
-1.227282123e-14
-1.214278248e-14
-1.251602854e-14
-1.066993307e-14
-1.07123662e-14
-1.160766884e-14
-1.18822342e-14
-1.148038159e-14
-1.167434223e-14
-1.164417234e-14
-1.123601891e-14
-1.122913184e-14
-1.167416327e-14
-1.136935794e-14
-1.258417256e-14
-1.281412645e-14
-1.269034025e-14
-1.212154636e-14
-1.258070611e-14
-1.229106198e-14
-1.238552535e-14
-6.905067748e-15
-6.745909343e-15
-7.724130698e-15
-7.607911449e-15
-7.595077891e-15
-7.914075147e-15
-7.913558517e-15
-7.77087917e-15
-8.375382069e-15
-8.210470217e-15
-8.215301476e-15
-8.129491463e-15
-8.114682592e-15
-8.505318193e-15
-8.931812092e-15
-8.461069951e-15
-9.036304163e-15
-8.819950218e-15
-9.180228642e-15
-8.555444668e-15
-9.140888338e-15
-8.920455488e-15
-9.046562092e-15
-9.262731397e-15
-9.122831064e-15
-9.192622892e-15
-9.195478173e-15
-9.35585586e-15
-8.890072679e-15
-8.687507039e-15
-9.08740571e-15
-9.384523838e-15
-9.333069742e-15
-9.30832657e-15
-9.361778706e-15
-9.501568814e-15
-9.938146188e-15
-9.552152521e-15
-9.318025297e-15
-9.340207059e-15
-9.257554119e-15
-9.463712453e-15
-9.737251524e-15
-1.012118308e-14
-9.746058109e-15
-9.430906761e-15
-9.797703026e-15
-9.686315303e-15
-1.012704728e-14
-9.762664835e-15
-9.384026404e-15
-1.002558223e-14
-9.910870676e-15
-1.015014958e-14
-1.01046364e-14
-9.457546235e-15
-9.953097162e-15
-9.905639316e-15
-1.017368491e-14
-9.859197005e-15
-1.040521001e-14
-1.035647212e-14
-1.043939768e-14
-1.039340968e-14
-1.075786372e-14
-1.049514865e-14
-9.49137255e-15
-1.000856913e-14
-1.030841282e-14
-1.027213186e-14
-1.023345266e-14
-1.057850005e-14
-1.042305242e-14
-1.069861722e-14
-1.106853362e-14
-1.068226698e-14
-1.115247916e-14
-1.023492264e-14
-1.038002202e-14
-1.026364981e-14
-1.074939181e-14
-1.063736328e-14
-1.048667096e-14
-1.045769642e-14
-1.08224908e-14
-1.080496782e-14
-1.128995629e-14
-1.086324069e-14
-1.135570232e-14
-1.14294752e-14
-1.113320055e-14
-1.04358357e-14
-1.058378294e-14
-1.085951022e-14
-1.041985373e-14
-1.095698412e-14
-1.105092394e-14
-1.090962626e-14
-1.108881447e-14
-1.124231205e-14
-1.105568585e-14
-1.101042932e-14
-1.148623975e-14
-1.143180253e-14
-1.209016965e-14
-1.02700972e-14
-1.05398231e-14
-9.920360189e-15
-1.036871143e-14
-1.081552822e-14
-1.122977959e-14
-1.073643345e-14
-1.121090158e-14
-1.121938992e-14
-1.122247326e-14
-1.123837171e-14
-1.133474997e-14
-1.140415251e-14
-1.134440249e-14
-1.136060531e-14
-1.016091215e-14
-1.037990666e-14
-1.074322682e-14
-1.058632473e-14
-1.073560439e-14
-1.082998119e-14
-1.107951624e-14
-1.106706284e-14
-1.130319009e-14
-1.109815364e-14
-1.140517427e-14
-1.123923001e-14
-1.114555025e-14
-1.18610105e-14
-1.179617651e-14
-1.179024161e-14
-1.047392942e-14
-1.094588991e-14
-1.070096367e-14
-1.109025532e-14
-1.107342499e-14
-1.120733774e-14
-1.141203848e-14
-1.151620755e-14
-1.105459661e-14
-1.124092234e-14
-1.127878939e-14
-1.130871867e-14
-1.190531166e-14
-1.173357562e-14
-1.159993373e-14
-1.21831713e-14
-1.199671307e-14
-1.062868477e-14
-1.119042016e-14
-1.154473278e-14
-1.09527444e-14
-1.141169308e-14
-1.155654765e-14
-1.163615402e-14
-1.164028647e-14
-1.167397498e-14
-1.157484798e-14
-1.196264577e-14
-1.153950641e-14
-1.196556256e-14
-1.27614042e-14
-1.270098762e-14
-1.204530103e-14
-1.257430292e-14
-1.256729129e-14
-1.140753152e-14
-1.102997536e-14
-1.170860326e-14
-1.160205478e-14
-1.200918613e-14
-1.123099669e-14
-1.224639933e-14
-1.203234771e-14
-1.148555054e-14
-1.187577102e-14
-1.154138562e-14
-1.208919336e-14
-1.271502386e-14
-1.24369598e-14
-1.222206683e-14
-1.312179429e-14
-1.274349595e-14
-1.308425222e-14
-1.335879237e-14
-6.841721566e-15
-6.654257042e-15
-6.249054915e-15
-6.656433051e-15
-7.262964886e-15
-7.433629669e-15
-7.555638586e-15
-7.458930544e-15
-7.539181227e-15
-7.882864585e-15
-7.716754723e-15
-7.604357638e-15
-8.012094351e-15
-8.045098688e-15
-8.294547562e-15
-8.202696968e-15
-8.116155897e-15
-8.310261668e-15
-8.217760451e-15
-8.494617778e-15
-8.378029599e-15
-8.861304727e-15
-8.836751179e-15
-9.019844461e-15
-8.808292923e-15
-9.05163749e-15
-8.963037164e-15
-9.127514979e-15
-9.107149597e-15
-9.408315855e-15
-9.360884791e-15
-9.385265822e-15
-9.207199756e-15
-9.392341893e-15
-9.467871522e-15
-9.282563962e-15
-9.194268187e-15
-9.144318778e-15
-9.097853058e-15
-9.478207302e-15
-9.318172922e-15
-9.52852109e-15
-9.24466114e-15
-9.680462945e-15
-9.560151309e-15
-9.892201121e-15
-9.92803599e-15
-9.208261208e-15
-9.531871527e-15
-9.170689881e-15
-9.395868351e-15
-9.584511928e-15
-1.016487104e-14
-9.809338429e-15
-1.031284219e-14
-9.673787407e-15
-9.460056485e-15
-9.667103366e-15
-9.928960438e-15
-9.619614998e-15
-1.009145417e-14
-9.655258088e-15
-9.961429917e-15
-1.021459129e-14
-1.001155502e-14
-9.697348108e-15
-9.572090395e-15
-9.663848286e-15
-9.743469405e-15
-9.910519493e-15
-9.9196545e-15
-1.005150736e-14
-9.963365512e-15
-1.056719316e-14
-1.074558725e-14
-1.026598194e-14
-1.082332819e-14
-1.005381407e-14
-9.729150606e-15
-9.681170605e-15
-1.02885134e-14
-1.014817968e-14
-1.008054968e-14
-1.053592782e-14
-1.055252726e-14
-1.034218503e-14
-1.068539974e-14
-1.084853966e-14
-1.092341431e-14
-1.086989356e-14
-1.047123543e-14
-1.037720275e-14
-1.030147148e-14
-1.07348875e-14
-1.069370743e-14
-1.089294545e-14
-1.076359517e-14
-1.044725851e-14
-1.098374084e-14
-1.095320857e-14
-1.06454845e-14
-1.026553955e-14
-1.142693715e-14
-1.104410692e-14
-1.145553585e-14
-1.018335283e-14
-1.073107164e-14
-1.047903771e-14
-1.05998653e-14
-1.04420014e-14
-1.104772709e-14
-1.116205642e-14
-1.089010577e-14
-1.127354512e-14
-1.139555172e-14
-1.116994533e-14
-1.119119479e-14
-1.170640792e-14
-1.175086155e-14
-1.180482882e-14
-1.017371237e-14
-1.028722911e-14
-1.02861712e-14
-1.056363766e-14
-1.078051974e-14
-1.136112263e-14
-1.1051966e-14
-1.122344657e-14
-1.09933669e-14
-1.116859884e-14
-1.130292264e-14
-1.103114165e-14
-1.122810706e-14
-1.136878006e-14
-1.111579734e-14
-1.202420979e-14
-1.005667088e-14
-1.047727696e-14
-1.039102415e-14
-1.031803706e-14
-1.068397522e-14
-1.095529749e-14
-1.087639721e-14
-1.098690912e-14
-1.090741456e-14
-1.130332266e-14
-1.108706634e-14
-1.111003369e-14
-1.101967374e-14
-1.14516403e-14
-1.163686185e-14
-1.160960189e-14
-1.179959892e-14
-1.029887887e-14
-1.054056706e-14
-1.087388209e-14
-1.082890945e-14
-1.122832096e-14
-1.150831573e-14
-1.162698732e-14
-1.138505884e-14
-1.1103967e-14
-1.128975838e-14
-1.145375085e-14
-1.118897458e-14
-1.158742565e-14
-1.219276639e-14
-1.165147928e-14
-1.19829599e-14
-1.209143754e-14
-1.217300055e-14
-1.071217624e-14
-1.071130243e-14
-1.115085932e-14
-1.135028769e-14
-1.078149935e-14
-1.183863573e-14
-1.18190427e-14
-1.160835881e-14
-1.15604702e-14
-1.115018996e-14
-1.192462941e-14
-1.177952728e-14
-1.163206848e-14
-1.226233265e-14
-1.295698684e-14
-1.23096557e-14
-1.251944934e-14
-1.262860546e-14
-1.23185979e-14
-1.02630901e-14
-1.075859734e-14
-1.121823779e-14
-1.169285314e-14
-1.147791547e-14
-1.118341723e-14
-1.213910248e-14
-1.179395053e-14
-1.17178423e-14
-1.168408536e-14
-1.148070949e-14
-1.233829932e-14
-1.237545171e-14
-1.309097147e-14
-1.240877682e-14
-1.309323213e-14
-1.334349096e-14
-1.298338043e-14
-1.297325481e-14
-1.253310663e-14
-6.374909629e-15
-6.281237426e-15
-5.821961763e-15
-6.725053068e-15
-6.586861442e-15
-6.244658062e-15
-6.719625109e-15
-7.043952919e-15
-7.264838138e-15
-7.498680764e-15
-7.391361647e-15
-7.298618745e-15
-7.484867955e-15
-7.662658388e-15
-7.773475977e-15
-7.676284135e-15
-7.826631883e-15
-7.837939276e-15
-7.770376151e-15
-8.207299678e-15
-8.037085428e-15
-8.690117037e-15
-8.235276451e-15
-8.354266431e-15
-8.306028987e-15
-8.32401496e-15
-8.179156211e-15
-8.310403643e-15
-8.865050705e-15
-9.1778107e-15
-8.74923094e-15
-8.593830351e-15
-8.872832038e-15
-9.055307042e-15
-8.87596269e-15
-8.626445153e-15
-8.757180575e-15
-9.048533653e-15
-9.322567381e-15
-9.643384286e-15
-9.289486727e-15
-9.337930479e-15
-9.052505188e-15
-9.346361061e-15
-9.217516062e-15
-9.28709957e-15
-9.114127188e-15
-9.181844102e-15
-9.457769487e-15
-9.531850602e-15
-9.280266163e-15
-9.532767532e-15
-9.664924182e-15
-9.977465669e-15
-9.545949655e-15
-9.932752002e-15
-9.700691168e-15
-9.256067059e-15
-9.433559208e-15
-9.173635079e-15
-9.674292539e-15
-9.499846349e-15
-9.990820477e-15
-1.009593357e-14
-9.960557124e-15
-9.878800351e-15
-9.552101323e-15
-9.690094787e-15
-9.563442463e-15
-9.781269829e-15
-9.873458484e-15
-9.80825249e-15
-9.990346756e-15
-9.886385132e-15
-1.025372844e-14
-1.004433263e-14
-9.820747275e-15
-9.869341496e-15
-9.548385668e-15
-9.595469239e-15
-9.724478216e-15
-9.850438252e-15
-9.74260103e-15
-1.002038972e-14
-9.972640074e-15
-1.016671959e-14
-1.040384702e-14
-1.040604305e-14
-1.024671603e-14
-1.021827866e-14
-9.995132789e-15
-1.014477245e-14
-1.021516107e-14
-9.979150941e-15
-1.021688236e-14
-9.967116739e-15
-1.013712063e-14
-1.031510292e-14
-1.068268229e-14
-1.029406119e-14
-1.083399124e-14
-1.080216953e-14
-1.087213829e-14
-1.051123129e-14
-1.048397775e-14
-1.031844627e-14
-1.02499622e-14
-1.045058736e-14
-1.073351379e-14
-1.054256256e-14
-1.03913788e-14
-1.077384164e-14
-1.073500382e-14
-1.117176894e-14
-1.078331055e-14
-1.063236598e-14
-1.081855574e-14
-1.121432317e-14
-1.124798061e-14
-1.1581375e-14
-1.031523129e-14
-1.055969451e-14
-1.055293931e-14
-1.078782837e-14
-1.079118056e-14
-1.087091951e-14
-1.109182989e-14
-1.112143911e-14
-1.107153998e-14
-1.128219001e-14
-1.13015901e-14
-1.103989731e-14
-1.15055414e-14
-1.158924238e-14
-1.147661208e-14
-1.202939659e-14
-9.776308792e-15
-1.047447698e-14
-1.023132722e-14
-1.050042709e-14
-1.058896571e-14
-1.147952501e-14
-1.079886198e-14
-1.11071805e-14
-1.071174692e-14
-1.109982391e-14
-1.108368567e-14
-1.132834239e-14
-1.113397005e-14
-1.121589746e-14
-1.162339898e-14
-1.133376425e-14
-1.199243412e-14
-1.025229249e-14
-1.026473328e-14
-1.047409842e-14
-1.053241419e-14
-1.084928178e-14
-1.12213335e-14
-1.098316341e-14
-1.104282023e-14
-1.079255904e-14
-1.105577269e-14
-1.114952567e-14
-1.089280224e-14
-1.101360659e-14
-1.107902323e-14
-1.152730103e-14
-1.135367796e-14
-1.177517583e-14
-1.232653944e-14
-9.861930758e-15
-1.061731765e-14
-1.070898961e-14
-1.119768722e-14
-1.076356712e-14
-1.126128008e-14
-1.121433632e-14
-1.115868344e-14
-1.129389735e-14
-1.101751437e-14
-1.139809714e-14