/*--------------------------------*- C++ -*----------------------------------*\
| =========                 |                                                 |
| \\      /  F ield         | OpenFOAM: The Open Source CFD Toolbox           |
|  \\    /   O peration     | Version:  2212                                  |
|   \\  /    A nd           | Website:  www.openfoam.com                      |
|    \\/     M anipulation  |                                                 |
\*---------------------------------------------------------------------------*/
FoamFile
{
    version     2.0;
    format      ascii;
    arch        "LSB;label=32;scalar=64";
    class       surfaceScalarField;
    location    "1.8";
    object      phi;
}
// * * * * * * * * * * * * * * * * * * * * * * * * * * * * * * * * * * * * * //

dimensions      [0 3 -1 0 0 0 0];

oriented        oriented;

internalField   nonuniform List<scalar> 
124950
(
0.0025
-2.805305701e-19
2.592289416e-19
0.0025
-8.242036393e-19
4.261084634e-19
0.0025
-3.461673512e-19
5.696423307e-19
0.0025
-1.859682324e-19
-6.786544921e-19
0.0025
-9.983859187e-19
4.952207013e-19
0.0025
-7.642299488e-19
4.993371585e-19
0.0025
-9.00445496e-19
-3.438630932e-19
0.0025
-3.769355478e-19
7.299086125e-19
0.0025
-2.965823288e-19
-6.784382796e-20
0.0025
2.575974478e-19
-3.531528224e-19
0.0025
-1.364174964e-18
-1.947054914e-19
0.0025
-6.44334646e-19
7.812524353e-19
0.0025
-9.319236233e-19
4.29935521e-19
0.0025
-6.133146902e-19
6.705546165e-19
0.0025
-7.510580556e-19
1.1786719e-19
0.0025
-3.057445565e-19
1.913184774e-20
0.0025
-6.928289006e-19
6.057150321e-19
0.0025
-4.40525368e-19
-1.959043093e-19
0.0025
-1.735047848e-20
2.393722912e-19
0.0025
5.213238292e-19
-2.2879353e-19
0.0025
-1.872337816e-18
-6.34527453e-19
0.0025
-1.017295393e-18
5.158014947e-19
0.0025
-6.491169977e-19
2.729603219e-19
0.0025
-7.617801653e-19
4.795214001e-19
0.0025
-7.436544304e-19
4.60954977e-19
0.0025
-1.031562196e-18
2.618800172e-19
0.0025
-2.176917745e-19
6.770407289e-19
0.0025
-6.150223803e-19
1.957511853e-19
0.0025
-2.196359843e-19
3.881804335e-19
0.0025
-3.94712649e-19
-2.528080705e-19
0.0025
5.192964625e-19
1.128789185e-18
0.0025
-6.301480177e-19
1.413233347e-21
0.0025
-1.322700975e-19
-1.882079658e-20
0.0025
-2.426048337e-19
-2.635475852e-19
0.0025
4.920688487e-19
-1.11411272e-19
0.0025
-1.619541122e-18
-3.910327604e-20
0.0025
-1.323741251e-18
3.759058427e-19
0.0025
-6.736673472e-19
-1.886069984e-19
0.0025
-1.09929896e-18
1.11255994e-19
0.0025
-7.538526238e-19
1.708517268e-19
0.0025
-1.190068789e-18
-1.584745298e-19
0.0025
-4.491468507e-19
1.038000586e-18
0.0025
-6.211045646e-19
3.192243128e-19
0.0025
-7.063249351e-19
3.395069912e-19
0.0025
-9.181598638e-19
-1.064720707e-19
0.0025
7.371469265e-21
1.046679752e-18
0.0025
-1.798877357e-19
5.284083388e-19
0.0025
-2.024134078e-19
5.216067869e-19
0.0025
-2.636614349e-19
2.555295736e-19
0.0025
2.862932384e-19
-1.241684383e-19
0.0025
3.872288303e-19
2.71391179e-19
0.0025
-2.172717065e-19
5.020690533e-19
0.0025
-2.615940711e-19
6.112341171e-20
0.0025
-1.59508071e-19
1.223879302e-19
0.0025
3.065853332e-19
-6.956515902e-20
0.0025
6.057029752e-19
-1.582584633e-21
0.0025
-1.795932938e-18
-1.400763394e-20
0.0025
-1.322516419e-18
5.630940215e-19
0.0025
-1.019044436e-18
-2.14416268e-19
0.0025
-8.523171544e-19
2.213965861e-19
0.0025
-8.338007731e-19
-8.654213569e-20
0.0025
-1.045903034e-18
-2.400189255e-19
0.0025
-7.142064072e-19
1.095110621e-18
0.0025
-5.470269454e-19
1.652430744e-19
0.0025
-8.758633185e-19
-2.106045793e-19
0.0025
-7.358878995e-19
4.516903171e-19
0.0025
-6.854798607e-19
5.994999317e-19
0.0025
-5.569586659e-19
7.579767562e-19
0.0025
-4.185061087e-19
5.634095607e-19
0.0025
-4.170509772e-19
2.162202042e-19
0.0025
-6.908472622e-19
-1.647245168e-19
0.0025
3.041155665e-19
7.176644837e-19
0.0025
-1.88551741e-19
6.975860961e-19
0.0025
2.883997586e-20
6.429461364e-19
0.0025
-5.137693325e-20
4.898823599e-19
0.0025
4.908400072e-21
-5.006759679e-20
0.0025
7.851290787e-20
-7.607646496e-20
0.0025
-3.523112361e-20
2.567928094e-19
0.0025
2.064190822e-19
3.709975384e-19
0.0025
1.564273795e-19
5.857811143e-19
0.0025
3.354113702e-19
3.444930858e-19
0.0025
-1.205666169e-19
-1.6468872e-19
0.0025
1.666339715e-19
-3.525115326e-20
0.0025
4.605330278e-19
-1.381988229e-19
0.0025
-2.16341567e-18
-5.659275814e-19
0.0025
-1.672250255e-18
-1.252154279e-19
0.0025
-2.005496854e-18
-1.447354278e-19
0.0025
-1.090032054e-18
4.158106811e-19
0.0025
-1.197783247e-18
-1.584576984e-19
0.0025
-1.076073642e-18
1.065311168e-19
0.0025
-7.031389872e-19
8.132465151e-19
0.0025
-4.610818956e-19
3.163744268e-19
0.0025
-7.318048383e-19
-3.982552768e-19
0.0025
-7.640086019e-19
1.328867779e-20
0.0025
-9.82507098e-19
4.696521134e-19
0.0025
-8.543886236e-19
8.209401002e-19
0.0025
-3.932402046e-19
1.716885739e-19
0.0025
-2.643049615e-19
7.400911703e-20
0.0025
-1.326091555e-18
-9.401329857e-20
0.0025
-2.661103843e-19
9.263452865e-19
0.0025
-5.797018581e-19
4.15815875e-19
0.0025
-6.209561656e-19
5.957004413e-19
0.0025
-1.093066839e-19
4.523533001e-19
0.0025
-5.772002953e-19
1.214737478e-19
0.0025
-3.36281462e-19
-3.526691117e-19
0.0025
1.716295793e-19
9.484596372e-19
0.0025
1.216730049e-19
5.280357348e-19
0.0025
-1.408558517e-20
4.789718893e-19
0.0025
-1.160695862e-19
4.030369389e-19
0.0025
-3.445485528e-19
1.46661133e-19
0.0025
2.221063111e-19
1.364240958e-19
0.0025
2.611049211e-19
-1.425270026e-19
0.0025
1.544753558e-19
1.767282078e-19
0.0025
-1.405363957e-19
2.573113304e-19
0.0025
5.145264884e-19
5.072400517e-19
0.0025
-1.007038625e-20
-1.274479538e-19
0.0025
-1.868996008e-19
1.635677816e-19
0.0025
1.87804756e-19
-2.601639266e-20
0.0025
9.47594524e-20
6.724233432e-20
0.0025
5.791016384e-19
1.784582934e-19
0.0025
-2.107796671e-18
-1.209569712e-18
0.0025
-1.514084935e-18
-2.792883645e-19
0.0025
-2.143446586e-18
-3.706036415e-19
0.0025
-1.349622748e-18
-7.256165788e-20
0.0025
-1.343395511e-18
2.274385875e-19
0.0025
-1.661356052e-18
-3.766983901e-20
0.0025
-6.430813716e-19
5.942101809e-19
0.0025
-1.07587987e-18
2.386266601e-19
0.0025
-8.34572069e-19
-2.226313776e-19
0.0025
-1.096219642e-18
-1.231952991e-19
0.0025
-6.811900353e-19
6.987268431e-19
0.0025
-8.224595422e-19
6.040781924e-19
0.0025
-4.763300637e-19
6.003813094e-20
0.0025
-1.226726051e-19
1.090230758e-19
0.0025
-7.56181005e-19
5.552150637e-19
0.0025
-6.026241782e-19
6.0611577e-19
0.0025
-1.047718782e-18
4.26289857e-19
0.0025
-8.42164888e-19
2.406025564e-19
0.0025
-5.618242413e-20
4.361088696e-19
0.0025
-5.407955434e-19
2.880075267e-19
0.0025
-8.420386237e-19
-4.35399483e-19
0.0025
-3.16973295e-20
7.590494789e-19
0.0025
-4.337107399e-19
5.811652373e-19
0.0025
-4.212398591e-19
4.035823431e-19
0.0025
-8.24083736e-19
-1.788702002e-20
0.0025
-6.883705054e-19
3.430121928e-19
0.0025
1.452980007e-20
-1.350387124e-19
0.0025
-2.574805222e-19
-2.645426298e-19
0.0025
9.415467325e-20
4.917499896e-19
0.0025
1.33181302e-20
3.104230131e-19
0.0025
1.75194546e-19
5.224280105e-19
0.0025
-2.433125646e-19
4.047060217e-19
0.0025
-2.491264741e-19
2.648905116e-19
0.0025
-1.229297654e-20
-7.587946023e-21
0.0025
1.10681012e-20
-2.176727273e-20
0.0025
2.364643229e-19
-5.077276247e-19
0.0025
-1.027296781e-19
2.066024549e-19
0.0025
3.733210021e-19
3.622071183e-19
0.0025
1.327122752e-20
1.226189358e-20
0.0025
-4.456883136e-19
-3.471681683e-19
0.0025
-1.046335094e-19
-4.537703619e-19
0.0025
-6.814561481e-19
-2.234385806e-19
0.0025
-1.796623382e-20
-4.570854052e-19
0.0025
-1.061202175e-19
2.002898317e-19
0.0025
4.24397413e-19
3.091478698e-19
0.0025
-1.696941594e-18
-1.882378053e-18
0.0025
-1.741464906e-18
-5.787038939e-19
0.0025
-1.735819456e-18
-1.102028476e-18
0.0025
-1.810551981e-18
-9.039109923e-19
0.0025
-1.677734764e-18
-2.810365884e-19
0.0025
-2.240493529e-18
-7.935498741e-19
0.0025
-7.362838074e-19
3.078468209e-19
0.0025
-1.111716094e-18
1.107852977e-19
0.0025
-1.381017693e-18
-1.658948652e-19
0.0025
-1.783355644e-18
-4.708158708e-19
0.0025
-5.912389502e-19
5.340541373e-19
0.0025
-9.394065914e-19
4.586819905e-19
0.0025
-7.912479034e-19
9.095718923e-20
0.0025
-7.263639744e-19
-4.677851055e-20
0.0025
-1.067880718e-18
-6.275404999e-19
0.0025
-7.362307225e-19
1.488293556e-19
0.0025
-1.068339538e-18
3.091611322e-19
0.0025
-7.813845466e-19
2.334176762e-19
0.0025
-2.029776589e-19
2.091973299e-19
0.0025
-3.658774473e-19
3.620458472e-19
0.0025
-9.466030775e-19
7.125749359e-21
0.0025
-4.226125929e-19
6.502905901e-19
0.0025
-2.677403326e-19
7.68872061e-19
0.0025
-9.816178661e-19
1.501535209e-19
0.0025
-9.404829693e-19
2.100719792e-20
0.0025
-4.737067734e-19
2.532542052e-19
0.0025
-2.633586636e-19
-1.386514271e-19
0.0025
-6.131784895e-19
-5.621535821e-19
0.0025
1.074119719e-19
8.589812342e-19
0.0025
2.367660276e-19
9.749683653e-19
0.0025
-2.449135368e-19
4.633947569e-19
0.0025
-3.97765016e-19
5.444579097e-19
0.0025
-4.529110251e-19
2.145481955e-19
0.0025
-4.078483981e-19
-5.757283296e-20
0.0025
-2.265794069e-19
-4.646169118e-19
0.0025
-5.097800172e-19
-5.88573061e-19
0.0025
3.349191111e-19
8.011561661e-19
0.0025
-5.849474818e-21
4.736193455e-20
0.0025
-7.784177352e-20
2.115293883e-19
0.0025
-5.376913597e-19
2.299648623e-19
0.0025
-1.263988255e-19
1.181462712e-19
0.0025
-2.366857543e-19
-2.386109306e-20
0.0025
-9.680955766e-20
-3.204123365e-19
0.0025
6.883112879e-20
-2.254334043e-19
0.0025
2.937934145e-19
-7.163330524e-20
0.0025
-1.565220677e-19
4.244124311e-19
0.0025
3.622717453e-19
2.879805325e-19
0.0025
-7.75159205e-21
-6.579698966e-19
0.0025
-6.806012775e-19
1.205959653e-19
0.0025
2.423936166e-19
-1.128712985e-19
0.0025
-2.098006696e-19
3.140493594e-19
0.0025
-7.398949645e-20
-2.579394103e-19
0.0025
1.575471897e-19
-2.368712876e-19
0.0025
-5.418977949e-19
-2.224002518e-19
0.0025
2.801344885e-19
3.605937603e-19
0.0025
-1.061159127e-18
-1.714301389e-18
0.0025
-1.760015329e-18
-1.12841573e-18
0.0025
-1.056958083e-18
-1.337019564e-18
0.0025
-1.690794491e-18
-9.045924771e-19
0.0025
-1.780557305e-18
-5.860743785e-19
0.0025
-1.436224809e-18
-6.08625306e-19
0.0025
-1.623420063e-18
-3.315058999e-19
0.0025
-1.69968066e-18
-5.773412655e-19
0.0025
-1.59845034e-18
-4.435418401e-19
0.0025
-2.032054809e-18
-1.271918126e-18
0.0025
-1.06363055e-18
6.132601234e-20
0.0025
-1.169886643e-18
5.883548094e-20
0.0025
-1.041445639e-18
-7.638962725e-20
0.0025
-1.487280545e-18
-3.952903002e-19
0.0025
-1.920515299e-18
-9.586524083e-19
0.0025
-9.124294877e-19
-3.117040078e-20
0.0025
-9.665662871e-19
4.96744122e-19
0.0025
-6.318761969e-19
3.941557754e-19
0.0025
-7.59332387e-19
-1.528028608e-19
0.0025
-8.385807134e-19
-2.043716998e-19
0.0025
-6.077773117e-19
-1.799384824e-19
0.0025
-4.461227325e-19
7.520268931e-19
0.0025
-2.551277386e-19
4.681015084e-19
0.0025
-1.150707265e-18
8.528374806e-20
0.0025
-6.385218414e-19
2.688920654e-19
0.0025
-2.573906838e-19
2.341891516e-19
0.0025
-4.401106323e-19
-1.512879342e-19
0.0025
-1.125857417e-18
-2.606211424e-19
0.0025
-8.738734128e-20
7.778006963e-19
0.0025
-3.793763599e-19
7.274975742e-19
0.0025
-7.18553819e-19
4.158855199e-19
0.0025
-8.426127537e-19
2.605203904e-19
0.0025
-7.214609186e-19
6.229646266e-20
0.0025
-1.855223912e-19
-2.651201088e-19
0.0025
-4.442434602e-19
-4.140911767e-19
0.0025
-5.705661051e-19
-2.225590346e-19
0.0025
5.622382067e-19
9.871110775e-19
0.0025
-1.97103783e-19
3.006289479e-19
0.0025
-2.808062736e-19
7.761037669e-19
0.0025
-1.338377731e-19
5.780497908e-19
0.0025
-2.81959325e-19
2.732351643e-19
0.0025
-5.01943897e-19
1.321539234e-19
0.0025
-3.86155681e-19
-3.292422408e-19
0.0025
1.650376429e-19
-2.175668351e-19
0.0025
-2.706151406e-19
-4.774525246e-19
0.0025
-5.529325195e-19
-6.291978428e-20
0.0025
5.633166685e-20
4.669194456e-19
0.0025
1.607735409e-19
2.074494092e-19
0.0025
-3.333197743e-19
2.439734544e-19
0.0025
-2.134662606e-19
1.551050346e-19
0.0025
-4.522740788e-19
2.345290096e-20
0.0025
-1.296971497e-19
-2.286188229e-19
0.0025
-8.462244158e-20
-2.311513459e-19
0.0025
2.17397126e-19
-2.37427075e-19
0.0025
4.774410707e-19
1.609559227e-19
0.0025
-3.965056229e-19
5.252243702e-19
0.0025
1.042956626e-19
-3.987021205e-19
0.0025
-6.412945211e-19
-7.083453769e-19
0.0025
-2.960501463e-20
2.532481966e-20
0.0025
-6.961336771e-19
-5.345840724e-19
0.0025
-1.711834924e-19
4.620348377e-19
0.0025
2.954165905e-19
-1.274149335e-19
0.0025
-1.74971072e-19
-3.28787642e-19
0.0025
-1.187372019e-19
1.628332469e-19
0.0025
-2.119010215e-19
-2.116233677e-19
0.0025
-4.763310324e-19
-4.010600459e-19
0.0025
-3.898633357e-19
-1.401630099e-18
0.0025
-1.86111812e-18
-1.639803685e-18
0.0025
-9.558124228e-19
-1.069533957e-18
0.0025
-1.971950084e-18
-1.33704671e-18
0.0025
-1.454711041e-18
-1.147667583e-18
0.0025
-1.001868977e-18
-6.17607634e-19
0.0025
-1.871668426e-18
-9.849614507e-19
0.0025
-1.767032431e-18
-8.811831058e-19
0.0025
-1.666787134e-18
-5.138085915e-19
0.0025
-1.56439069e-18
-7.096352208e-19
0.0025
-1.51861016e-18
-3.741193323e-19
0.0025
-1.513404695e-18
-3.305594881e-19
0.0025
-1.526564539e-18
-7.024342156e-19
0.0025
-1.830082682e-18
-8.321783933e-19
0.0025
-1.539571398e-18
-8.104341355e-19
0.0025
-1.082215169e-18
-4.076947202e-20
0.0025
-9.660415303e-19
2.770078688e-19
0.0025
-7.716467599e-19
1.358038705e-19
0.0025
-1.34742666e-18
-3.736022687e-19
0.0025
-1.12125542e-18
-3.576141489e-19
0.0025
-1.285426858e-18
-5.784190942e-19
0.0025
-3.821622618e-19
6.169692945e-19
0.0025
-9.471330568e-19
3.417255167e-19
0.0025
-9.527445259e-19
5.140712383e-20
0.0025
-8.802521144e-19
2.825314335e-19
0.0025
-2.775206438e-19
-1.524773614e-20
0.0025
-7.267545387e-19
-2.371229498e-19
0.0025
-6.827117835e-19
1.939143062e-19
0.0025
-7.643455431e-19
-5.47428609e-20
0.0025
-1.076714612e-18
2.051328275e-19
0.0025
-7.742522233e-19
6.330067235e-19
0.0025
-9.443190185e-19
-2.878069832e-21
0.0025
-7.683802786e-19
1.764096769e-19
0.0025
-1.281309031e-19
-2.63233088e-19
0.0025
-2.492738096e-19
-7.62248396e-21
0.0025
-1.197507034e-18
-4.190336455e-19
0.0025
4.245455764e-20
6.749732899e-19
0.0025
-6.072397594e-19
5.910336564e-19
0.0025
-3.332610372e-19
6.821405601e-19
0.0025
5.938660525e-20
7.544018375e-19
0.0025
-5.050798855e-19
7.747390469e-19
0.0025
-2.950528451e-19
5.871710201e-20
0.0025
-3.093101209e-19
-3.21114068e-19
0.0025
-1.949316229e-19
-2.83236567e-19
0.0025
-5.625812417e-19
-5.035669209e-19
0.0025
-5.843430598e-20
1.700492291e-19
0.0025
1.484942081e-19
4.27770879e-19
0.0025
-1.67749611e-19
6.727760257e-19
0.0025
-1.287915549e-19
2.941662439e-19
0.0025
-3.048907639e-19
4.03384252e-19
0.0025
-1.606968337e-19
2.891517403e-19
0.0025
-3.109487893e-19
-1.348171137e-19
0.0025
-1.534115039e-19
-1.532444941e-19
0.0025
1.365148957e-20
-5.798474392e-20
0.0025
2.561040506e-19
-7.069673268e-19
0.0025
-5.98496818e-19
6.312275303e-19
0.0025
-1.237901858e-19
1.258685338e-19
0.0025
-2.625747697e-19
-1.978023998e-19
0.0025
-1.708707892e-20
3.692041808e-19
0.0025
-2.010419001e-19
1.82376913e-19
0.0025
-3.670832974e-19
1.079227038e-19
0.0025
2.836793833e-20
-3.183794093e-19
0.0025
-4.134595036e-19
-3.343626286e-19
0.0025
-2.945870099e-19
-1.282641142e-19
0.0025
3.536170996e-19
8.617847063e-20
0.0025
-1.56987831e-20
-2.346828653e-19
0.0025
-5.806965025e-19
4.3852464e-19
0.0025
-4.930360408e-19
-3.907803261e-19
0.0025
-4.323272127e-19
-3.548405468e-19
0.0025
1.051076644e-19
3.758955973e-20
0.0025
-1.591544861e-19
-8.333496767e-20
0.0025
-3.969362968e-20
5.075046825e-19
0.0025
1.357421565e-22
-5.924659505e-19
0.0025
-2.224480901e-19
-8.660375754e-20
0.0025
-1.36020635e-19
-2.957176853e-19
0.0025
-3.078268015e-19
-7.420465189e-20
0.0025
-2.74328594e-19
2.798003955e-19
0.0025
4.973507161e-19
-1.961131139e-19
0.0025
-6.118370278e-19
-1.577305487e-18
0.0025
-1.987941568e-18
-2.16118984e-18
0.0025
-1.227597316e-18
-1.266527665e-18
0.0025
-2.299253934e-18
-1.463899421e-18
0.0025
-1.201025387e-18
-1.304157166e-18
0.0025
-1.076578595e-18
-7.751404757e-19
0.0025
-1.68723368e-18
-7.82991956e-19
0.0025
-1.591595884e-18
-1.191900967e-18
0.0025
-1.473932072e-18
-6.990645071e-19
0.0025
-1.25262762e-18
-3.801754346e-19
0.0025
-1.592510992e-18
-7.534218987e-19
0.0025
-1.548132559e-18
-6.264503742e-19
0.0025
-1.715595905e-18
-7.271317398e-19
0.0025
-1.783241545e-18
-8.763959631e-19
0.0025
-1.423293573e-18
-1.102349492e-18
0.0025
-1.381564565e-18
-3.83333146e-19
0.0025
-1.44897377e-18
-2.171521986e-19
0.0025
-1.324959368e-18
-4.815350194e-19
0.0025
-1.573477863e-18
-4.464768874e-19
0.0025
-1.122170411e-18
-6.45109608e-19
0.0025
-1.558530633e-18
-6.285097979e-19
0.0025
-8.834072128e-19
4.573962374e-19
0.0025
-1.202420994e-18
-1.395032353e-19
0.0025
-9.632196835e-19
-1.893664181e-19
0.0025
-1.217300688e-18
-8.467828491e-20
0.0025
-7.267610396e-19
-2.291165467e-19
0.0025
-1.101701711e-18
-2.849215774e-19
0.0025
-1.156548899e-18
-3.241295976e-19
0.0025
-1.648692253e-18
-8.527393213e-19
0.0025
-1.07720951e-18
2.187636132e-19
0.0025
-1.177871437e-18
3.039519517e-19
0.0025
-1.168658698e-18
-1.373637021e-20
0.0025
-8.500944055e-19
-2.590501326e-19
0.0025
-6.691036131e-19
-2.739562831e-19
0.0025
-3.030488242e-19
2.61059574e-21
0.0025
-1.267969542e-18
-4.74031294e-19
0.0025
-6.16973836e-19
1.726791825e-19
0.0025
-9.053150639e-19
3.055818212e-19
0.0025
-1.045158831e-18
-1.404635915e-19
0.0025
-5.334079294e-19
5.835422817e-19
0.0025
-7.322635951e-19
4.109602378e-19
0.0025
-3.4767795e-19
7.488940396e-20
0.0025
-2.660502575e-19
-3.910687696e-19
0.0025
-8.445718256e-19
-2.649499033e-19
0.0025
-8.394076386e-19
-5.034955883e-19
0.0025
-2.380546355e-20
3.503045641e-19
0.0025
-3.849682916e-19
5.294220768e-19
0.0025
-3.652051979e-19
5.821451279e-19
0.0025
-3.804130542e-19
-1.033147296e-19
0.0025
-7.956914892e-19
3.195779207e-19
0.0025
-8.163347053e-19
-1.716379299e-19
0.0025
-5.378583888e-19
-2.883818057e-19
0.0025
-9.878836424e-20
-2.239147269e-19
0.0025
-3.27005685e-19
8.836311106e-20
0.0025
-2.417149728e-19
-1.198478961e-18
0.0025
-6.247602943e-19
6.661247496e-19
0.0025
-7.09575585e-20
3.787698024e-19
0.0025
3.971777108e-19
6.990168878e-19
0.0025
-1.697017202e-19
3.228232247e-19
0.0025
-1.827270152e-19
4.953634181e-19
0.0025
-4.406092092e-20
-1.341895996e-19
0.0025
-4.731075103e-19
-2.974849982e-19
0.0025
-5.035989799e-19
-1.423547574e-19
0.0025
-1.61564176e-19
-1.102210711e-19
0.0025
2.115820235e-19
-2.899619254e-19
0.0025
1.30093853e-19
-6.396795453e-19
0.0025
-5.683824659e-19
2.284551347e-19
0.0025
-5.542129714e-19
5.228341005e-19
0.0025
-3.480826898e-19
1.868585534e-19
0.0025
4.009332553e-19
1.171247666e-19
0.0025
-1.288830503e-19
1.234120565e-19
0.0025
-1.400141211e-19
8.084515512e-20
0.0025
-3.489327913e-19
-3.707383762e-19
0.0025
-2.30258656e-19
-1.745442636e-19
0.0025
-2.592394347e-19
-1.431896069e-19
0.0025
-2.511340873e-19
-6.641004815e-20
0.0025
4.207586583e-20
4.327965238e-20
0.0025
6.51421968e-19
-7.23049222e-20
0.0025
-8.683018143e-20
8.336820867e-19
0.0025
-6.051234149e-19
-3.47699143e-19
0.0025
-5.584652303e-20
5.660192508e-20
0.0025
3.58672316e-19
3.256832458e-19
0.0025
1.99050242e-19
1.463315619e-19
0.0025
1.89250912e-19
5.304142697e-20
0.0025
-8.202640782e-19
-2.928759733e-20
0.0025
1.554871907e-19
-5.972816861e-19
0.0025
-1.706940915e-19
1.258547436e-19
0.0025
3.341662016e-19
4.592709511e-19
0.0025
-1.118594321e-20
3.923121296e-19
0.0025
-1.282361023e-19
-1.585019851e-19
0.0025
6.324406317e-19
1.261923014e-19
0.0025
-1.076179811e-18
-1.709482371e-18
0.0025
-1.721583861e-18
-2.174540355e-18
0.0025
-1.448805269e-18
-1.487600443e-18
0.0025
-2.627583911e-18
-1.97499518e-18
0.0025
-1.599323368e-18
-1.635182034e-18
0.0025
-1.032291995e-18
-6.320371309e-19
0.0025
-1.322883001e-18
-5.053142318e-19
0.0025
-1.804424291e-18
-1.47582668e-18
0.0025
-1.474678704e-18
-8.191616663e-19
0.0025
-1.275646043e-18
-7.18475134e-19
0.0025
-1.28400975e-18
-9.630478869e-19
0.0025
-1.480408218e-18
-9.954330896e-19
0.0025
-1.770296723e-18
-5.846137863e-19
0.0025
-1.448682332e-18
-7.447979185e-19
0.0025
-1.151044682e-18
-9.878634269e-19
0.0025
-1.185547413e-18
-5.769365063e-19
0.0025
-1.384501443e-18
-7.178547506e-19
0.0025
-1.692110151e-18
-4.068539375e-19
0.0025
-1.385934314e-18
-3.982108561e-19
0.0025
-1.430497584e-18
-1.155956038e-18
0.0025
-1.756581074e-18
-1.182304705e-18
0.0025
-1.232584495e-18
3.372201616e-19
0.0025
-9.670923197e-19
-1.664202003e-19
0.0025
-1.191261147e-18
1.676920332e-19
0.0025
-9.045812026e-19
-3.93412175e-19
0.0025
-1.21319907e-18
-5.028981428e-19
0.0025
-1.074606753e-18
-2.830567429e-19
0.0025
-1.21189944e-18
-3.354146291e-19
0.0025
-2.163417198e-18
-4.751501267e-19
0.0025
-8.436109796e-19
3.072187844e-19
0.0025
-1.039137152e-18
-2.762792729e-19
0.0025
-1.074674321e-18
-7.348242564e-20
0.0025
-9.050117272e-19
-4.142883556e-19
0.0025
-1.32296791e-18
-4.910014601e-19
0.0025
-9.679891255e-19
-3.085862691e-19
0.0025
-1.279881716e-18
-4.911195262e-19
0.0025
-1.254250581e-18
3.275810776e-19
0.0025
-9.896788797e-19
-6.471754975e-20
0.0025
-1.189740338e-18
-1.891355414e-19
0.0025
-1.14329408e-18
2.620806201e-19
0.0025
-1.172978283e-18
-2.606612291e-19
0.0025
-6.059936594e-19
-1.741848566e-19
0.0025
-6.718461101e-19
-3.187279886e-19
0.0025
-1.043448207e-18
-4.133154825e-19
0.0025
-9.823325642e-19
-3.728697907e-19
0.0025
-5.527916896e-19
6.172550013e-20
0.0025
-9.043427558e-19
1.81311932e-19
0.0025
-8.535486746e-19
2.979127047e-19
0.0025
-7.364778154e-19
5.324145754e-20
0.0025
-1.027342756e-18
2.80963093e-19
0.0025
-1.002784013e-18
-5.876845654e-19
0.0025
-9.257470257e-19
-4.685358017e-19
0.0025
-2.443750222e-19
-3.043782816e-19
0.0025
-6.39287505e-19
-2.790695395e-19
0.0025
-1.012910404e-18
-1.002477236e-18
0.0025
-3.018144093e-19
6.10004648e-19
0.0025
8.963633486e-20
6.624686402e-19
0.0025
6.973836677e-20
7.825128529e-19
0.0025
-6.259245795e-19
3.56986473e-19
0.0025
-1.874656256e-19
4.858420981e-19
0.0025
-3.415472409e-19
-1.331231339e-19
0.0025
-7.281739553e-19
-1.618174462e-19
0.0025
-3.077667155e-19
-3.238218609e-19
0.0025
-1.224553777e-19
-7.576718837e-20
0.0025
-4.218237154e-19
-4.326577037e-19
0.0025
2.290688372e-19
-8.498667098e-19
0.0025
-5.561050199e-19
4.576771497e-19
0.0025
-2.770694563e-19
5.04236052e-19
0.0025
-1.265327101e-19
6.300433262e-19
0.0025
1.316728598e-19
2.28235358e-19
0.0025
-8.040405519e-20
2.877742146e-19
0.0025
-3.130737499e-19
-1.687503405e-19
0.0025
-3.971822918e-19
-1.473540394e-19
0.0025
-5.058463378e-19
-3.157707048e-19
0.0025
-3.778171646e-19
-3.187047828e-20
0.0025
-3.007018215e-19
-3.131035138e-19
0.0025
2.833332433e-19
-1.285425732e-19
0.0025
6.6023592e-19
-2.20218563e-19
0.0025
-2.121631116e-19
1.074090135e-18
0.0025
-2.77894032e-19
3.791181044e-19
0.0025
-2.99051829e-19
1.36512934e-19
0.0025
5.807019071e-20
2.284035563e-20
0.0025
1.12105475e-19
9.557849844e-20
0.0025
-1.59606393e-19
-6.394260855e-20
0.0025
-6.787594484e-19
2.896114059e-21
0.0025
-2.074384943e-19
-1.97426837e-19
0.0025
1.187128514e-19
-2.324198916e-19
0.0025
-2.64892073e-19
3.387748234e-19
0.0025
-1.990853944e-19
3.501242872e-20
0.0025
3.431012623e-19
5.954379529e-20
0.0025
6.369600302e-19
-2.642272076e-19
0.0025
3.849898651e-20
6.307024236e-19
0.0025
-4.137961051e-19
3.748864887e-19
0.0025
3.146860202e-19
-3.658471729e-19
0.0025
-5.461609619e-19
-2.913651944e-19
0.0025
-4.443704868e-19
-2.642899164e-19
0.0025
-2.474194635e-19
-1.454661895e-19
0.0025
-1.690016129e-19
-2.548105486e-19
0.0025
-6.463719925e-19
-2.267012622e-20
0.0025
4.581047872e-19
-1.445698652e-19
0.0025
-4.720262677e-19
-3.708596978e-19
0.0025
-4.098459249e-19
4.097783743e-19
0.0025
5.56896761e-20
3.280530185e-19
0.0025
4.062821862e-19
-2.441103045e-19
0.0025
1.976750804e-19
4.303573208e-19
0.0025
-2.186251354e-18
-2.465109682e-18
0.0025
-1.878389153e-18
-2.299351752e-18
0.0025
-2.087132145e-18
-1.908367827e-18
0.0025
-2.528336743e-18
-2.082768801e-18
0.0025
-1.71519939e-18
-1.554869581e-18
0.0025
-4.568367423e-19
-3.31031949e-19
0.0025
-1.17263977e-18
-5.848587649e-19
0.0025
-1.741559664e-18
-1.292962151e-18
0.0025
-1.24770797e-18
-6.718593473e-19
0.0025
-1.306177188e-18
-6.499768428e-19
0.0025
-9.453252123e-19
-1.060632868e-18
0.0025
-1.293852695e-18
-9.240911547e-19
0.0025
-1.577906137e-18
-6.241535621e-19
0.0025
-1.463252927e-18
-5.827961408e-19
0.0025
-7.663596248e-19
-6.404143324e-19
0.0025
-8.505028306e-19
-5.684359498e-19
0.0025
-1.180774451e-18
-1.009168212e-18
0.0025
-1.421920711e-18
-4.68633482e-19
0.0025
-1.502618316e-18
-5.498421368e-19
0.0025
-1.337135512e-18
-8.907549364e-19
0.0025
-1.457610148e-18
-1.293917657e-18
0.0025
-1.209377031e-18
-3.544157656e-19
0.0025
-1.196175185e-18
-6.20103017e-19
0.0025
-1.191910225e-18
-3.269725455e-20
0.0025
-1.526106323e-18
-8.12800158e-19
0.0025
-1.609335642e-18
-8.765965052e-19
0.0025
-1.186995185e-18
-3.984283188e-19
0.0025
-8.586493441e-19
-6.187147834e-19
0.0025
-1.648375842e-18
-1.198311724e-19
0.0025
-8.939230523e-19
1.511312295e-19
0.0025
-8.852217256e-19
-1.278202147e-19
0.0025
-1.358782049e-18
-3.356795022e-19
0.0025
-7.721929336e-19
-3.520714699e-19
0.0025
-1.371253852e-18
-4.268626796e-19
0.0025
-1.088437033e-18
-2.458398877e-19
0.0025
-1.289756047e-18
-2.93693672e-19
0.0025
-1.164319687e-18
8.664993963e-19
0.0025
-1.314082382e-18
-3.467098009e-19
0.0025
-1.102839004e-18
-7.796876349e-21
0.0025
-1.243965765e-18
-3.046298531e-19
0.0025
-1.291035877e-18
-5.418849714e-19
0.0025
-1.068587167e-18
-3.589191194e-19
0.0025
-9.332434603e-19
-2.310064042e-19
0.0025
-1.037077792e-18
-5.181574259e-19
0.0025
-1.160823712e-18
-4.754943163e-19
0.0025
-1.005811799e-18
2.20583586e-20
0.0025
-1.002790139e-18
2.780972948e-19
0.0025
-1.230536922e-18
5.335136837e-20
0.0025
-9.586150745e-19
3.165277878e-20
0.0025
-1.115271647e-18
2.709354519e-19
0.0025
-8.094979944e-19
-5.806637473e-19
0.0025
-1.02535723e-18
-3.956356286e-19
0.0025
-9.408115984e-19
-4.176291596e-19
0.0025
-5.781814284e-19
-4.41737054e-19
0.0025
-1.201890746e-18
-6.695080389e-19
0.0025
-4.736397964e-19
1.22470001e-19
0.0025
-5.357037459e-19
6.505741909e-19
0.0025
-2.434513783e-19
6.649980254e-19
0.0025
-5.754302903e-19
4.801807672e-19
0.0025
-7.173984831e-19
3.727376447e-19
0.0025
-6.953749242e-19
4.907515289e-20
0.0025
-5.600907168e-19
9.57229065e-20
0.0025
-3.154432545e-19
-5.215292765e-19
0.0025
-1.108051587e-19
-7.644471736e-20
0.0025
-7.771398925e-19
-6.007814947e-19
0.0025
-4.056594541e-19
-7.459584462e-19
0.0025
-7.844357863e-19
3.846876016e-19
0.0025
-3.302952674e-19
3.195037906e-19
0.0025
-8.66876053e-20
5.395547263e-19
0.0025
-4.332434719e-19
3.774645352e-19
0.0025
-2.353114997e-19
3.799660367e-19
0.0025
-3.555213357e-19
-2.547461368e-19
0.0025
-6.960333204e-19
-7.949755901e-20
0.0025
-7.874805248e-19
-2.339909889e-19
0.0025
-8.645372235e-20
-5.855817322e-20
0.0025
-1.359843101e-19
-1.450650321e-19
0.0025
-3.34998723e-20
-5.396603938e-19
0.0025
2.73801929e-19
-5.711654117e-19
0.0025
-3.170817902e-19
1.034033829e-18
0.0025
-2.244867251e-19
4.607936183e-19
0.0025
-1.630637138e-19
4.35003332e-19
0.0025
-3.439267587e-19
-1.984384626e-19
0.0025
-1.047442824e-19
8.661034605e-20
0.0025
-5.614267113e-19
-1.211077939e-19
0.0025
-3.746237936e-19
-3.258442286e-19
0.0025
-3.762556486e-19
4.528130912e-21
0.0025
-1.533609371e-19
4.275131341e-20
0.0025
-4.999357588e-19
1.118807354e-19
0.0025
5.81876362e-20
-2.166428738e-19
0.0025
6.130162426e-19
6.308263707e-20
0.0025
6.838106311e-19
-1.952223562e-19
0.0025
3.585721069e-19
9.369341869e-19
0.0025
-3.158329885e-19
8.181468453e-19
0.0025
2.767707334e-19
3.444029621e-19
0.0025
-2.821633774e-19
-6.776880688e-20
0.0025
-2.857467875e-19
-3.834279244e-19
0.0025
-3.233643999e-19
-2.138848854e-19
0.0025
-5.24045738e-19
-1.437580065e-19
0.0025
-2.773745993e-19
9.336801281e-20
0.0025
-1.499600677e-19
-1.451046275e-19
0.0025
1.049070988e-19
1.462985258e-19
0.0025
-3.479337229e-19
5.025581905e-19
0.0025
3.110007432e-19
1.791363105e-19
0.0025
4.142286605e-19
-4.921462239e-19
0.0025
5.441466679e-19
1.741442523e-19
0.0025
-2.032323359e-20
3.165256982e-19
0.0025
-3.703750261e-19
8.497957928e-19
0.0025
3.187255476e-19
-3.873937355e-19
0.0025
-1.9022795e-19
-1.344344624e-19
0.0025
-2.200908893e-19
4.791605626e-20
0.0025
-1.401903094e-19
7.96310495e-20
0.0025
3.250730696e-19
-3.306175956e-19
0.0025
-2.562329934e-19
-3.004375039e-19
0.0025
-7.471462685e-19
1.126381178e-19
0.0025
4.423332801e-19
3.075930524e-19
0.0025
9.262113743e-20
5.50433411e-19
0.0025
-7.386640449e-20
9.601849086e-20
0.0025
1.350988851e-19
-3.794869463e-19
0.0025
-2.757121429e-19
-1.723014979e-19
0.0025
-2.4886807e-19
1.481252906e-19
0.0025
-3.391198117e-18
-3.228700566e-18
0.0025
-2.037571881e-18
-2.254315793e-18
0.0025
-2.222738411e-18
-2.462182748e-18
0.0025
-2.299343319e-18
-2.038583651e-18
0.0025
-1.838104217e-18
-1.605689208e-18
0.0025
-8.001272983e-19
-5.007554601e-19
0.0025
-1.156300214e-18
-8.000583716e-19
0.0025
-1.658826651e-18
-1.087793417e-18
0.0025
-9.267191099e-19
-7.378901917e-19
0.0025
-1.470078907e-18
-5.95768754e-19
0.0025
-9.418574858e-19
-1.268472589e-18
0.0025
-1.117534305e-18
-7.907177363e-19
0.0025
-1.684603297e-18
-7.642459162e-19
0.0025
-1.542000091e-18
-5.312822933e-19
0.0025
-7.386415592e-19
-5.292021773e-19
0.0025
-8.738205119e-19
-5.598909791e-19
0.0025
-8.295453978e-19
-8.60145457e-19
0.0025
-1.080252759e-18
-7.409223747e-19
0.0025
-1.599926667e-18
-6.855504528e-19
0.0025
-1.331988326e-18
-6.4424573e-19
0.0025
-1.201531395e-18
-9.338240717e-19
0.0025
-9.144089704e-19
-8.593949271e-19
0.0025
-1.264683787e-18
-9.29104539e-19
0.0025
-9.515868388e-19
-3.256280113e-19
0.0025
-1.490478317e-18
-4.683998349e-19
0.0025
-1.297244255e-18
-9.599972961e-19
0.0025
-1.411861214e-18
-6.901987887e-19
0.0025
-6.909975053e-19
-9.679632204e-19
0.0025
-1.32697048e-18
-4.810944148e-19
0.0025
-9.538649806e-19
-3.00891918e-19
0.0025
-9.021036714e-19
-1.859243009e-19
0.0025
-1.280493085e-18
-2.317577842e-19
0.0025
-1.107663844e-18
-5.519621364e-19
0.0025
-1.277536059e-18
-7.308487811e-19
0.0025
-1.195857227e-18
-3.629042246e-19
0.0025
-1.071661865e-18
-5.586851052e-19
0.0025
-1.223197513e-18
5.794948725e-19
0.0025
-1.067369018e-18
-3.106218428e-19
0.0025
-9.701490647e-19
5.308427556e-20
0.0025
-1.501582456e-18
-3.773377774e-19
0.0025
-1.044728368e-18
-5.966167158e-19
0.0025
-1.216300452e-18
-3.925551682e-19
0.0025
-1.329984307e-18
-3.519573843e-19
0.0025