/*--------------------------------*- C++ -*----------------------------------*\
| =========                 |                                                 |
| \\      /  F ield         | OpenFOAM: The Open Source CFD Toolbox           |
|  \\    /   O peration     | Version:  2212                                  |
|   \\  /    A nd           | Website:  www.openfoam.com                      |
|    \\/     M anipulation  |                                                 |
\*---------------------------------------------------------------------------*/
FoamFile
{
    version     2.0;
    format      ascii;
    arch        "LSB;label=32;scalar=64";
    class       surfaceScalarField;
    location    "1.8";
    object      phiHbyA;
}
// * * * * * * * * * * * * * * * * * * * * * * * * * * * * * * * * * * * * * //

dimensions      [0 3 -1 0 0 0 0];

oriented        oriented;

internalField   nonuniform List<scalar> 
124950
(
0.0025
-2.05621965e-19
1.178840641e-19
0.0025
-6.553316643e-19
3.666577302e-19
0.0025
-1.786702912e-19
3.179280009e-19
0.0025
-2.225874417e-19
-4.979976426e-19
0.0025
-8.878188881e-19
5.092437937e-19
0.0025
-6.454610806e-19
5.19936822e-19
0.0025
-6.527503212e-19
-3.910595039e-19
0.0025
-3.713351146e-19
3.485063906e-19
0.0025
-2.593206182e-19
4.343662864e-20
0.0025
1.523832237e-19
-4.210427896e-19
0.0025
-1.337611748e-18
-5.96081531e-20
0.0025
-7.270814996e-19
7.679445809e-19
0.0025
-8.492054787e-19
1.870838134e-19
0.0025
-5.65892746e-19
5.948948807e-19
0.0025
-7.289265443e-19
7.69376729e-21
0.0025
-1.21449764e-19
-2.319174523e-19
0.0025
-4.829095579e-19
2.50100731e-19
0.0025
-4.092359978e-19
-1.19167017e-19
0.0025
-1.463193215e-20
3.36923061e-20
0.0025
2.775859152e-19
-2.244143883e-19
0.0025
-1.765167586e-18
-5.376043641e-19
0.0025
-1.153077339e-18
5.177687394e-19
0.0025
-7.551026407e-19
1.67077985e-19
0.0025
-6.360800617e-19
4.474014163e-19
0.0025
-8.447202259e-19
3.031956258e-19
0.0025
-8.648256748e-19
1.241656119e-19
0.0025
-4.325781471e-19
5.982467535e-19
0.0025
-5.709804512e-19
7.772908954e-20
0.0025
-2.05353146e-19
1.503802909e-19
0.0025
-1.984823365e-19
-1.867544562e-19
0.0025
1.600820473e-19
6.703802726e-19
0.0025
-5.238693945e-19
1.042862814e-20
0.0025
-1.687026249e-19
-1.234783426e-19
0.0025
-1.388638482e-19
-1.2745549e-19
0.0025
3.804210474e-19
-2.283363105e-19
0.0025
-1.682844834e-18
-2.896368767e-20
0.0025
-1.453300537e-18
2.859589066e-19
0.0025
-7.534219267e-19
-1.451518341e-19
0.0025
-9.201057489e-19
2.362492992e-19
0.0025
-7.662127233e-19
2.546416407e-19
0.0025
-1.106439977e-18
1.045245162e-19
0.0025
-6.428639479e-19
8.562486433e-19
0.0025
-6.453075954e-19
2.611204908e-19
0.0025
-7.077352014e-19
2.12091745e-19
0.0025
-7.418352881e-19
-8.396344511e-20
0.0025
9.293924218e-20
9.040523568e-19
0.0025
-4.572841172e-19
3.927555817e-19
0.0025
-1.7600214e-19
2.332612946e-19
0.0025
-2.999239463e-19
1.465855077e-19
0.0025
3.074093432e-19
-3.560663051e-19
0.0025
3.674700216e-19
1.935857937e-19
0.0025
-1.94982966e-19
5.168015658e-19
0.0025
-1.495983302e-19
7.197402789e-20
0.0025
-8.043243615e-20
4.472576978e-21
0.0025
1.563188702e-19
-2.61534541e-19
0.0025
4.181830013e-19
-4.991580035e-20
0.0025
-1.832145466e-18
6.226998034e-20
0.0025
-1.345245729e-18
4.908065678e-19
0.0025
-1.164383163e-18
-9.991820165e-20
0.0025
-9.074241283e-19
3.213637473e-19
0.0025
-7.732628158e-19
6.774061283e-21
0.0025
-1.075430615e-18
-1.409446288e-19
0.0025
-8.477984757e-19
9.451277387e-19
0.0025
-6.430306996e-19
2.538383131e-19
0.0025
-8.834180933e-19
-2.170262576e-20
0.0025
-7.251466843e-19
9.066821857e-20
0.0025
-6.163605701e-19
5.928832893e-19
0.0025
-5.749737802e-19
7.267693586e-19
0.0025
-4.158127152e-19
4.245520352e-19
0.0025
-4.299035229e-19
2.125562513e-19
0.0025
-5.406449047e-19
-3.413575625e-19
0.0025
2.259196883e-19
5.201230264e-19
0.0025
-1.582091283e-19
6.564337789e-19
0.0025
-1.540559658e-19
3.663880057e-19
0.0025
-1.317830387e-20
4.025043298e-19
0.0025
-9.788075526e-21
-1.990859553e-19
0.0025
1.814854458e-19
-1.6713738e-19
0.0025
-6.563449098e-21
9.450648639e-20
0.0025
1.025111477e-19
3.669484193e-19
0.0025
1.599344885e-19
2.866055459e-19
0.0025
1.373809265e-19
2.020413424e-19
0.0025
-6.602737232e-20
-1.227467894e-19
0.0025
2.502788211e-19
-4.158053082e-20
0.0025
3.148707944e-19
-1.174495351e-19
0.0025
-2.113009906e-18
-5.255906224e-19
0.0025
-1.511932176e-18
2.632418003e-19
0.0025
-1.728930227e-18
-1.006895502e-19
0.0025
-1.054168272e-18
3.042608144e-19
0.0025
-1.259549183e-18
-3.18414187e-20
0.0025
-1.208650562e-18
-1.160918764e-20
0.0025
-7.101856879e-19
7.896033602e-19
0.0025
-6.391749291e-19
2.466268724e-19
0.0025
-8.343306323e-19
-2.656751902e-19
0.0025
-7.594109075e-19
9.222404995e-21
0.0025
-9.445954992e-19
5.108552653e-19
0.0025
-7.965930747e-19
8.453500313e-19
0.0025
-5.534292664e-19
2.882786681e-19
0.0025
-3.441715956e-19
1.83601975e-20
0.0025
-1.011090664e-18
-1.406876752e-19
0.0025
-3.38031334e-19
8.488620028e-19
0.0025
-5.816289326e-19
4.706777365e-19
0.0025
-5.529020208e-19
3.858622268e-19
0.0025
-1.775939793e-19
4.158874834e-19
0.0025
-6.228547046e-19
2.811528024e-20
0.0025
-1.035281476e-19
-3.103467768e-19
0.0025
-5.312619483e-20
7.882526556e-19
0.0025
8.113042787e-20
5.782118446e-19
0.0025
1.075854545e-19
5.23085934e-19
0.0025
2.170664758e-20
3.62871394e-19
0.0025
-2.591374382e-19
1.230805365e-20
0.0025
2.220751147e-19
-5.634838292e-20
0.0025
2.616023874e-19
-2.717546349e-19
0.0025
-1.181042872e-19
1.833261398e-19
0.0025
5.641007979e-20
1.116531418e-19
0.0025
2.690094844e-19
2.119931801e-19
0.0025
-2.634580441e-21
-9.742820167e-20
0.0025
-2.124585489e-19
1.704078439e-21
0.0025
3.853836687e-20
-7.781650988e-20
0.0025
1.329335624e-19
8.610472907e-20
0.0025
4.316585876e-19
-1.392736499e-20
0.0025
-2.095171331e-18
-1.162674579e-18
0.0025
-1.711754534e-18
-1.622006047e-19
0.0025
-2.016343608e-18
-5.275262653e-19
0.0025
-1.342464343e-18
1.014025007e-19
0.0025
-1.397851083e-18
3.06887339e-20
0.0025
-1.625993798e-18
-5.73672008e-20
0.0025
-7.090483954e-19
6.186218846e-19
0.0025
-9.046083032e-19
2.73533611e-19
0.0025
-9.880473336e-19
-2.576224866e-19
0.0025
-1.146055466e-18
-6.900215685e-20
0.0025
-7.407317469e-19
5.724267539e-19
0.0025
-9.318511891e-19
6.598822378e-19
0.0025
-5.288714973e-19
1.218806583e-19
0.0025
-2.959359585e-19
-1.397119828e-21
0.0025
-8.582440325e-19
2.000352972e-19
0.0025
-6.57852513e-19
8.324761575e-19
0.0025
-8.253482112e-19
4.372625731e-19
0.0025
-7.978065542e-19
3.322117918e-19
0.0025
-2.413523447e-19
2.654186876e-19
0.0025
-7.3570344e-19
1.447026372e-19
0.0025
-6.241776347e-19
-4.060131853e-19
0.0025
-1.465446901e-19
8.509360813e-19
0.0025
-3.36331311e-19
6.387239786e-19
0.0025
-4.204700538e-19
4.604484575e-19
0.0025
-4.893252624e-19
5.713257415e-20
0.0025
-6.4517239e-19
1.78300985e-19
0.0025
-1.024773495e-19
-1.618192536e-19
0.0025
-9.378889206e-20
-4.303124216e-19
0.0025
1.669937479e-19
5.391228969e-19
0.0025
-3.210830614e-21
3.854936909e-19
0.0025
1.595465371e-19
3.904008511e-19
0.0025
-2.977827291e-19
1.639949334e-19
0.0025
-3.118957838e-19
1.093195322e-19
0.0025
5.190023813e-20
-1.056063829e-19
0.0025
1.057909466e-19
4.676289269e-20
0.0025
4.345578969e-19
-2.645861488e-19
0.0025
-1.745578944e-19
2.325982097e-19
0.0025
1.215433829e-19
4.793556923e-20
0.0025
4.160434255e-20
1.22994833e-19
0.0025
-2.852255067e-19
-1.990017248e-19
0.0025
2.094898767e-20
-2.037503696e-19
0.0025
-2.951314007e-19
-1.60196012e-19
0.0025
-5.218993713e-20
-2.836481171e-19
0.0025
8.662878592e-20
3.855724339e-20
0.0025
3.066592414e-19
3.058919544e-19
0.0025
-1.731398925e-18
-1.718254611e-18
0.0025
-1.745274142e-18
-6.380076706e-19
0.0025
-1.829210893e-18
-1.003083652e-18
0.0025
-1.756534135e-18
-6.33748377e-19
0.0025
-1.721687643e-18
-3.238000903e-19
0.0025
-1.999761983e-18
-7.754684373e-19
0.0025
-8.595773701e-19
4.196493489e-19
0.0025
-1.166591721e-18
8.375063517e-21
0.0025
-1.341133646e-18
-1.632658758e-19
0.0025
-1.725712365e-18
-5.335691942e-19
0.0025
-6.36180221e-19
6.403294283e-19
0.0025
-9.233773337e-19
4.212916841e-19
0.0025
-6.922735941e-19
1.477335849e-19
0.0025
-7.880717343e-19
-1.181324571e-19
0.0025
-1.243310325e-18
-3.693252327e-19
0.0025
-6.253751944e-19
2.666486049e-19
0.0025
-8.840969962e-19
4.56224993e-19
0.0025
-7.995163781e-19
3.507886086e-19
0.0025
-1.999906874e-19
2.02625921e-19
0.0025
-4.352920139e-19
2.684577126e-19
0.0025
-7.882722258e-19
-6.342891906e-21
0.0025
-3.416086942e-19
7.648153063e-19
0.0025
-4.342099147e-19
6.088918823e-19
0.0025
-9.3020019e-19
2.191504053e-19
0.0025
-9.187369864e-19
-8.988170759e-20
0.0025
-5.990754176e-19
1.722066339e-19
0.0025
-3.96009242e-19
-1.389245285e-19
0.0025
-4.248991578e-19
-3.993858867e-19
0.0025
2.301606044e-19
7.835116511e-19
0.0025
-4.437413222e-20
9.073991354e-19
0.0025
-2.726620791e-19
4.330919886e-19
0.0025
-4.841640934e-19
2.45914145e-19
0.0025
-4.917159104e-19
8.686922921e-20
0.0025
-3.276180412e-19
-3.397714557e-20
0.0025
-2.932103279e-19
-4.673390097e-19
0.0025
-1.834914796e-19
-5.002036104e-19
0.0025
1.558204788e-19
8.694823224e-19
0.0025
8.749609636e-20
1.904865343e-19
0.0025
-2.631681236e-20
1.46196151e-19
0.0025
-4.866454465e-19
6.847407943e-20
0.0025
-1.016486845e-19
-3.752446483e-20
0.0025
-2.995548207e-19
-1.618150991e-19
0.0025
-7.255191214e-20
-3.114572956e-19
0.0025
1.039788497e-19
-1.695695678e-20
0.0025
4.584353871e-19
1.556246802e-19
0.0025
-1.823652113e-19
2.780815142e-19
0.0025
1.189620995e-19
5.772058473e-20
0.0025
-1.7551761e-19
-2.688764624e-19
0.0025
-3.739076676e-19
-7.583163814e-20
0.0025
5.826237656e-20
-4.997003334e-20
0.0025
-2.713368997e-19
5.429828017e-20
0.0025
-1.06583969e-20
-1.979207562e-19
0.0025
9.904852302e-21
-2.725864244e-19
0.0025
-2.2313134e-19
-1.637636382e-19
0.0025
2.244376121e-19
2.54520611e-19
0.0025
-1.185771045e-18
-1.708949774e-18
0.0025
-1.674043879e-18
-1.155040782e-18
0.0025
-1.281109921e-18
-1.234567883e-18
0.0025
-1.848555178e-18
-8.959248526e-19
0.0025
-1.716555568e-18
-6.042908282e-19
0.0025
-1.646563827e-18
-7.330269074e-19
0.0025
-1.423032263e-18
-1.353201938e-19
0.0025
-1.71972959e-18
-6.823303622e-19
0.0025
-1.704628813e-18
-5.172919161e-19
0.0025
-1.883303559e-18
-1.132609241e-18
0.0025
-8.892293999e-19
3.752840024e-19
0.0025
-1.090908088e-18
3.71536425e-20
0.0025
-1.01559287e-18
-1.228897652e-19
0.0025
-1.496525625e-18
-4.256614478e-19
0.0025
-1.830737776e-18
-9.677008452e-19
0.0025
-6.218535251e-19
4.100394859e-20
0.0025
-1.045278242e-18
4.045938688e-19
0.0025
-6.706068859e-19
3.990372116e-19
0.0025
-7.122530372e-19
1.076707636e-20
0.0025
-6.653645896e-19
-1.248970075e-19
0.0025
-9.610475103e-19
-3.254904334e-19
0.0025
-5.599187481e-19
5.420535509e-19
0.0025
-4.717796526e-19
4.642106983e-19
0.0025
-1.117419395e-18
1.751056825e-20
0.0025
-8.417977852e-19
8.97020056e-20
0.0025
-4.270223633e-19
1.585179494e-19
0.0025
-4.916082664e-19
-3.424325051e-20
0.0025
-8.367354344e-19
-1.903705828e-19
0.0025
-6.649183421e-20
7.800212119e-19
0.0025
-4.108085905e-19
8.17310669e-19
0.0025
-6.352301276e-19
5.380151238e-19
0.0025
-7.380623581e-19
3.208058589e-19
0.0025
-5.285405617e-19
9.910284004e-20
0.0025
-1.930370866e-19
-1.311970647e-19
0.0025
-4.42697893e-19
-5.30110271e-19
0.0025
-6.609503862e-19
-4.024298472e-19
0.0025
4.902419515e-19
9.738307484e-19
0.0025
-1.298946167e-20
5.247832661e-19
0.0025
-2.702228852e-19
6.715114466e-19
0.0025
-2.358758674e-19
4.060473395e-19
0.0025
-2.41817089e-19
2.433425265e-19
0.0025
-4.429624538e-19
1.067926627e-19
0.0025
-3.548822723e-19
-3.364192394e-19
0.0025
9.395182127e-20
-2.632951606e-19
0.0025
-7.831096422e-20
-4.098886035e-19
0.0025
-4.066337423e-19
2.111607158e-19
0.0025
8.339447035e-20
3.361067567e-19
0.0025
-1.981817654e-20
4.604250112e-20
0.0025
-3.778684839e-19
2.406138758e-19
0.0025
-4.2891431e-21
1.159967644e-19
0.0025
-3.109614721e-19
5.218760669e-20
0.0025
-2.587750427e-20
-2.419557265e-19
0.0025
-8.265674069e-20
-2.80736226e-19
0.0025
-5.516480698e-21
-1.246698402e-19
0.0025
5.28495222e-19
1.995439186e-19
0.0025
-3.576191479e-19
1.883336572e-19
0.0025
-1.114588605e-19
-2.23975508e-19
0.0025
-4.796176065e-19
-3.152211549e-19
0.0025
-1.933402448e-19
-2.25169076e-19
0.0025
-4.435063594e-19
-2.212689883e-19
0.0025
-1.049009134e-19
1.04213202e-19
0.0025
1.358098039e-19
-1.099324099e-19
0.0025
-1.541761029e-19
-2.693926642e-19
0.0025
-1.712694247e-19
-3.748858248e-20
0.0025
-1.520930095e-19
-9.895448556e-20
0.0025
-3.132666434e-19
-1.061958711e-19
0.0025
-5.725404064e-19
-1.64579907e-18
0.0025
-1.748468078e-18
-1.625384384e-18
0.0025
-1.070667737e-18
-1.21771447e-18
0.0025
-1.888466848e-18
-1.333367257e-18
0.0025
-1.338970595e-18
-1.031157844e-18
0.0025
-1.211381582e-18
-5.168449029e-19
0.0025
-1.668370411e-18
-8.549647908e-19
0.0025
-1.802950281e-18
-9.444230703e-19
0.0025
-1.647808912e-18
-5.398121845e-19
0.0025
-1.676730677e-18
-9.046573939e-19
0.0025
-1.373896141e-18
-3.451090437e-19
0.0025
-1.480811084e-18
-3.477607123e-19
0.0025
-1.458825596e-18
-5.812602629e-19
0.0025
-1.741337127e-18
-8.524108668e-19
0.0025
-1.550045776e-18
-9.549927166e-19
0.0025
-9.764303332e-19
-7.363200548e-20
0.0025
-1.138463714e-18
1.282970543e-19
0.0025
-8.196971807e-19
9.224904721e-20
0.0025
-1.318628576e-18
-3.798494788e-19
0.0025
-1.106376562e-18
-4.866954639e-19
0.0025
-1.316051159e-18
-6.776359695e-19
0.0025
-7.022391312e-19
4.879122408e-19
0.0025
-8.587983269e-19
3.007243212e-19
0.0025
-9.803074236e-19
-1.21320794e-21
0.0025
-9.764845714e-19
2.10882904e-19
0.0025
-4.656597607e-19
-7.120622847e-20
0.0025
-6.889715994e-19
-1.941951097e-19
0.0025
-8.477747407e-19
-1.070815221e-19
0.0025
-6.803107019e-19
1.599874529e-19
0.0025
-7.663354983e-19
2.444901839e-19
0.0025
-9.476559709e-19
6.245448704e-19
0.0025
-8.517198213e-19
1.29420679e-19
0.0025
-6.601674138e-19
1.987217407e-19
0.0025
-1.997793167e-19
-2.832800286e-19
0.0025
-4.37863068e-19
-2.51188306e-19
0.0025
-1.222666972e-18
-4.341573308e-19
0.0025
2.417615903e-19
6.303043859e-19
0.0025
-6.332197215e-19
5.880188681e-19
0.0025
-4.575211509e-19
5.307322672e-19
0.0025
-1.308276001e-19
6.446935898e-19
0.0025
-5.705232061e-19
5.068762166e-19
0.0025
-4.068016959e-19
1.233395357e-19
0.0025
-3.861254268e-19
-4.045923961e-19
0.0025
-1.608452893e-19
-3.182908994e-19
0.0025
-5.087234957e-19
-5.872452295e-19
0.0025
-1.724767986e-19
1.446684047e-19
0.0025
6.481512238e-20
6.754086591e-19
0.0025
3.984817222e-20
4.108843635e-19
0.0025
-2.755075083e-19
3.415248835e-19
0.0025
-1.875677673e-19
3.003422073e-19
0.0025
-1.937040046e-19
2.295423307e-19
0.0025
-2.862154949e-19
-7.513555533e-20
0.0025
-5.527953813e-20
-2.064686296e-19
0.0025
-6.493014212e-20
-7.473099675e-20
0.0025
3.642337588e-19
-5.087867372e-19
0.0025
-7.091725796e-19
6.574894197e-19
0.0025
-2.254282498e-19
-6.358526415e-20
0.0025
-2.941530754e-19
-1.854984746e-19
0.0025
-2.396796306e-20
2.813980759e-19
0.0025
-3.300371361e-19
9.587774941e-20
0.0025
-2.052970732e-19
6.08063246e-20
0.0025
9.382946014e-20
-2.544005076e-19
0.0025
-2.323240528e-19
-2.208836565e-19
0.0025
-1.295574567e-19
-6.502423736e-20
0.0025
8.118613492e-20
-6.793768773e-20
0.0025
-1.57660648e-19
-1.41404329e-19
0.0025
-4.640209727e-19
2.379423182e-19
0.0025
-3.184139736e-19
-1.70519704e-20
0.0025
-4.490799927e-19
-1.562902058e-19
0.0025
7.221069786e-20
-1.000975876e-19
0.0025
-2.100829679e-19
-2.853722944e-21
0.0025
-1.990015138e-20
4.583841086e-20
0.0025
-3.742631475e-20
-3.760002212e-19
0.0025
-1.83071671e-19
-7.968263698e-20
0.0025
-1.676995232e-19
-1.429777204e-19
0.0025
-7.297230047e-21
-1.404645348e-20
0.0025
-2.670312658e-19
1.170863045e-19
0.0025
2.031874857e-19
-1.414826564e-19
0.0025
-5.862603583e-19
-1.742105525e-18
0.0025
-1.863169272e-18
-2.155321113e-18
0.0025
-1.160562251e-18
-1.260747498e-18
0.0025
-2.182347021e-18
-1.639163622e-18
0.0025
-1.278151666e-18
-1.333127167e-18
0.0025
-1.072692082e-18
-6.14280409e-19
0.0025
-1.604978915e-18
-8.52974299e-19
0.0025
-1.58202088e-18
-1.124831136e-18
0.0025
-1.407631534e-18
-6.32467418e-19
0.0025
-1.495861971e-18
-5.55135453e-19
0.0025
-1.509004015e-18
-7.765394914e-19
0.0025
-1.498619506e-18
-7.273020089e-19
0.0025
-1.789125425e-18
-6.755122613e-19
0.0025
-1.686640252e-18
-9.645797988e-19
0.0025
-1.429547033e-18
-1.087580283e-18
0.0025
-1.312234578e-18
-2.805862046e-19
0.0025
-1.231487423e-18
-1.746278159e-19
0.0025
-1.23264015e-18
-3.912260263e-19
0.0025
-1.53660388e-18
-6.60383958e-19
0.0025
-1.227099454e-18
-6.759344926e-19
0.0025
-1.455737202e-18
-5.800637897e-19
0.0025
-1.09378394e-18
4.254197143e-19
0.0025
-1.096314806e-18
-1.144717461e-19
0.0025
-9.618995636e-19
-9.217832447e-20
0.0025
-1.124608192e-18
-4.589026189e-21
0.0025
-6.116264871e-19
-4.032560323e-19
0.0025
-1.131881024e-18
-3.683779238e-19
0.0025
-1.171899355e-18
-3.837434192e-19
0.0025
-1.395137982e-18
-5.211398295e-19
0.0025
-9.361553268e-19
1.86199999e-19
0.0025
-1.081099125e-18
4.110182105e-19
0.0025
-1.036535005e-18
2.698671127e-20
0.0025
-8.339552515e-19
-6.624174034e-20
0.0025
-6.084758453e-19
-3.615207293e-19
0.0025
-3.957581712e-19
-1.612971494e-19
0.0025
-1.297184215e-18
-4.862557802e-19
0.0025
-5.198158267e-19
1.864250992e-19
0.0025
-1.022175437e-18
2.104714794e-19
0.0025
-8.692474148e-19
4.867746346e-20
0.0025
-5.092087689e-19
5.791231932e-19
0.0025
-7.763822352e-19
1.830772808e-19
0.0025
-4.896601059e-19
3.178687645e-20
0.0025
-3.607542579e-19
-4.279886104e-19
0.0025
-8.265151026e-19
-2.582771327e-19
0.0025
-8.427935556e-19
-7.11103948e-19
0.0025
-6.953305404e-20
2.317921359e-19
0.0025
-2.603715441e-19
6.588062312e-19
0.0025
-2.587862174e-19
5.255649143e-19
0.0025
-4.098450887e-19
7.966044631e-20
0.0025
-6.932222709e-19
3.053510074e-19
0.0025
-6.281421088e-19
1.844362687e-20
0.0025
-5.241481164e-19
-2.039654244e-19
0.0025
-7.708960796e-21
-2.994509438e-19
0.0025
-3.334012361e-19
-1.471360854e-19
0.0025
-3.405338444e-19
-1.052281019e-18
0.0025
-7.429453089e-19
7.916233333e-19
0.0025
-3.391518649e-20
4.407336022e-19
0.0025
1.278246448e-19
3.236063491e-19
0.0025
-7.562281352e-20
4.638728945e-19
0.0025
-2.357519384e-19
2.710684545e-19
0.0025
-4.799084319e-20
1.98148038e-20
0.0025
-2.925008683e-19
-1.894565715e-19
0.0025
-4.305188171e-19
-2.073479669e-19
0.0025
-7.520128426e-20
-4.810817144e-20
0.0025
2.118595443e-19
-2.240421217e-19
0.0025
1.066702417e-19
-5.774176178e-19
0.0025
-6.95650667e-19
3.969215774e-19
0.0025
-5.224730762e-19
2.825068041e-19
0.0025
-5.005942521e-19
9.423700801e-20
0.0025
2.64429479e-19
3.827746159e-20
0.0025
-1.268051346e-19
1.426332737e-19
0.0025
-1.632889763e-19
2.498442385e-20
0.0025
-1.958909192e-19
-3.914901299e-19
0.0025
-2.495277895e-19
-1.952137424e-19
0.0025
-2.122524348e-19
-9.223310908e-20
0.0025
-9.838791316e-20
-1.188941034e-19
0.0025
-1.287229958e-19
1.407909515e-19
0.0025
5.142056249e-19
-2.233425197e-19
0.0025
-1.330381868e-19
6.840080317e-19
0.0025
-4.382992558e-19
-1.634066651e-19
0.0025
-7.066033353e-20
-2.459521619e-20
0.0025
6.217205377e-20
5.733068156e-20
0.0025
3.548785847e-20
9.55582955e-20
0.0025
7.067919093e-21
-9.231231228e-21
0.0025
-4.010769865e-19
-7.981936605e-21
0.0025
-7.723493478e-20
-4.756776151e-19
0.0025
-1.663472198e-20
-1.738888542e-20
0.0025
6.503719534e-21
1.556956751e-19
0.0025
-7.438984614e-20
2.694753736e-19
0.0025
-8.106143912e-20
-5.306553528e-20
0.0025
3.895124543e-19
9.47611574e-20
0.0025
-1.054546273e-18
-1.917364378e-18
0.0025
-1.902281988e-18
-2.304401973e-18
0.0025
-1.389296923e-18
-1.447966954e-18
0.0025
-2.543362932e-18
-1.989266834e-18
0.0025
-1.495296977e-18
-1.522937274e-18
0.0025
-8.584791585e-19
-6.947359338e-19
0.0025
-1.429973147e-18
-6.137895791e-19
0.0025
-1.621523601e-18
-1.269585554e-18
0.0025
-1.316593855e-18
-7.640804357e-19
0.0025
-1.376966776e-18
-5.891197728e-19
0.0025
-1.319472466e-18
-1.043902047e-18
0.0025
-1.409431834e-18
-9.390937304e-19
0.0025
-1.77145219e-18
-6.188491063e-19
0.0025
-1.483214203e-18
-7.838432412e-19
0.0025
-1.258931303e-18
-1.044789153e-18
0.0025
-1.272504257e-18
-5.854786383e-19
0.0025
-1.286900364e-18
-6.356549366e-19
0.0025
-1.45954565e-18
-4.648969184e-19
0.0025
-1.569126293e-18
-6.109994394e-19
0.0025
-1.458501039e-18
-1.009907061e-18
0.0025
-1.631126495e-18
-1.038768751e-18
0.0025
-1.235737692e-18
2.783518077e-19
0.0025
-1.059315565e-18
-2.50893763e-19
0.0025
-1.100772746e-18
-6.160621065e-20
0.0025
-1.131869221e-18
-4.026050422e-19
0.0025
-9.71610883e-19
-5.652180986e-19
0.0025
-1.211030866e-18
-3.219524143e-19
0.0025
-1.196422893e-18
-3.715300605e-19
0.0025
-1.886665013e-18
-4.422334249e-19
0.0025
-9.881491582e-19
2.209130385e-19
0.0025
-1.044368199e-18
-1.869033647e-19
0.0025
-1.081166387e-18
-1.698703082e-19
0.0025
-9.887963725e-19
-5.098396125e-19
0.0025
-1.129245129e-18
-4.220126572e-19
0.0025
-8.457232887e-19
-3.19099749e-19
0.0025
-1.246318359e-18
-5.579872722e-19
0.0025
-1.337828288e-18
3.14153048e-19
0.0025
-1.081581101e-18
-2.184575233e-19
0.0025
-1.169862514e-18
-1.107091031e-19
0.0025
-1.075161589e-18
3.011274268e-19
0.0025
-1.042530865e-18
-1.596915364e-19
0.0025
-6.816932049e-19
-2.339375723e-19
0.0025
-5.834066119e-19
-4.446323964e-19
0.0025
-1.098154216e-18
-3.354161899e-19
0.0025
-9.212475378e-19
-6.676978216e-19
0.0025
-4.330989403e-19
1.288757342e-19
0.0025
-7.544412322e-19
3.393271602e-19
0.0025
-7.172834776e-19
4.357209478e-19
0.0025
-6.118992112e-19
4.627892342e-20
0.0025
-1.005687041e-18
2.724336241e-19
0.0025
-8.275491646e-19
-3.338806524e-19
0.0025
-7.708227411e-19
-4.107255138e-19
0.0025
-2.44348894e-19
-3.102844245e-19
0.0025
-6.338096956e-19
-4.012419058e-19
0.0025
-9.317412694e-19
-1.096061271e-18
0.0025
-6.475560498e-19
4.699159698e-19
0.0025
2.263449536e-20
6.395433495e-19
0.0025
4.202566916e-20
7.149368454e-19
0.0025
-5.305013929e-19
4.104152342e-19
0.0025
-3.464440748e-19
2.37422582e-19
0.0025
-4.732706254e-19
-1.073025443e-19
0.0025
-7.04242326e-19
-2.784659418e-19
0.0025
-4.9512132e-19
-4.674727072e-19
0.0025
-9.949060354e-20
-1.626096966e-19
0.0025
-2.795625783e-19
-3.960936704e-19
0.0025
2.110464029e-20
-1.10647669e-18
0.0025
-6.742538283e-19
5.634736438e-19
0.0025
-4.142713784e-19
5.018992105e-19
0.0025
-1.537909795e-19
4.799944253e-19
0.0025
8.768143163e-20
2.499285803e-19
0.0025
-1.056815962e-19
2.401332175e-19
0.0025
-1.894447066e-19
2.148636125e-20
0.0025
-3.648799157e-19
-1.49417253e-19
0.0025
-4.353313362e-19
-2.916946733e-19
0.0025
-2.156677608e-19
-1.154269276e-19
0.0025
-3.600082787e-19
-3.388745215e-19
0.0025
1.919199526e-19
-6.432121446e-20
0.0025
6.391110305e-19
-4.3233939e-19
0.0025
-1.245416377e-19
1.144699224e-18
0.0025
-5.020744052e-19
1.70098654e-19
0.0025
-2.360040879e-19
1.961402787e-19
0.0025
5.780751855e-20
5.252931425e-20
0.0025
8.413796239e-20
5.891317526e-20
0.0025
-2.134150177e-19
-8.894405596e-20
0.0025
-6.711750198e-19
-1.072919074e-19
0.0025
-1.4383289e-19
-3.324205586e-19
0.0025
-1.488052496e-20
-8.270993497e-20
0.0025
-1.191516143e-19
2.477999139e-19
0.0025
-8.483007444e-20
1.689746147e-19
0.0025
2.087532874e-19
-6.391948325e-20
0.0025
5.265805119e-19
-1.770932027e-19
0.0025
1.063125917e-19
5.040864344e-19
0.0025
-4.367609504e-19
3.155685235e-19
0.0025
2.378997362e-19
-2.166191093e-19
0.0025
-3.305495676e-19
-1.775017809e-19
0.0025
-3.586547712e-19
-7.639457363e-20
0.0025
-1.723132378e-19
-5.991314979e-20
0.0025
-2.03358908e-19
-2.457775771e-19
0.0025
-2.3945759e-19
-3.707494478e-21
0.0025
1.227412224e-19
-7.762074974e-20
0.0025
-1.077741537e-19
-1.623400811e-19
0.0025
-2.254135142e-19
2.951104041e-19
0.0025
6.545589934e-22
2.308401646e-19
0.0025
2.508075457e-19
-2.551481827e-19
0.0025
-2.497342686e-20
1.741705634e-19
0.0025
-2.121824551e-18
-2.373851221e-18
0.0025
-1.852887408e-18
-2.29522783e-18
0.0025
-1.85470502e-18
-1.78951492e-18
0.0025
-2.439866322e-18
-1.963892249e-18
0.0025
-1.646863994e-18
-1.508040394e-18
0.0025
-3.899040343e-19
-5.533238002e-19
0.0025
-1.350437445e-18
-6.724752066e-19
0.0025
-1.730934032e-18
-1.421050578e-18
0.0025
-1.384014765e-18
-8.353443681e-19
0.0025
-1.233750024e-18
-5.310462387e-19
0.0025
-1.003297938e-18
-1.067128248e-18
0.0025
-1.298666999e-18
-8.770411086e-19
0.0025
-1.554196528e-18
-6.439326134e-19
0.0025
-1.38002836e-18
-5.774057455e-19
0.0025
-9.912890624e-19
-7.722189955e-19
0.0025
-9.845812245e-19
-7.214374927e-19
0.0025
-1.288005366e-18
-1.02221914e-18
0.0025
-1.420334614e-18
-5.481473653e-19
0.0025
-1.549052347e-18
-5.512643201e-19
0.0025
-1.334044244e-18
-9.355850901e-19
0.0025
-1.55367115e-18
-1.400068027e-18
0.0025
-1.008884992e-18
-2.135420175e-19
0.0025
-1.133652275e-18
-5.741479497e-19
0.0025
-1.130553893e-18
-1.160844754e-19
0.0025
-1.318886062e-18
-6.323315141e-19
0.0025
-1.399270395e-18
-7.890179359e-19
0.0025
-1.273469048e-18
-4.647637965e-19
0.0025
-9.42862534e-19
-6.438013265e-19
0.0025
-1.690130041e-18
-1.811313289e-19
0.0025
-8.994848446e-19
1.385356862e-19
0.0025
-9.055669517e-19
-2.327867663e-19
0.0025
-1.143961956e-18
-3.229534343e-19
0.0025
-9.775620172e-19
-5.075683867e-19
0.0025
-1.222842626e-18
-4.570689335e-19
0.0025
-1.216171728e-18
-2.597585407e-19
0.0025
-1.252215705e-18
-5.005494049e-19
0.0025
-1.40856823e-18
7.42178412e-19
0.0025
-1.195619943e-18
-4.21021681e-19
0.0025
-1.235383317e-18
6.04945483e-20
0.0025
-1.270281295e-18
-2.549342602e-19
0.0025
-1.151444467e-18
-5.338517505e-19
0.0025
-1.048787334e-18
-4.335246498e-19
0.0025
-8.831150126e-19
-3.804204692e-19
0.0025
-1.053712541e-18
-4.674405545e-19
0.0025
-1.009717942e-18
-4.965248292e-19
0.0025
-7.805296212e-19
1.242998987e-19
0.0025
-9.705620549e-19
2.719884233e-19
0.0025
-1.174808041e-18
1.601626737e-19
0.0025
-9.103523837e-19
-2.532555012e-20
0.0025
-1.143164292e-18
1.497427416e-19
0.0025
-9.012129794e-19
-5.268519634e-19
0.0025
-9.874922754e-19
-4.788446216e-19
0.0025
-8.096766854e-19
-4.076456106e-19
0.0025
-7.008031817e-19
-5.207516846e-19
0.0025
-9.259885255e-19
-5.896424589e-19
0.0025
-6.717852926e-19
2.245874906e-19
0.0025
-3.817754148e-19
6.204778518e-19
0.0025
-2.81661422e-19
6.566429708e-19
0.0025
-5.853283909e-19
4.063566935e-19
0.0025
-6.596814185e-19
2.606897149e-19
0.0025
-7.772376703e-19
-4.468833386e-20
0.0025
-7.324232685e-19
-1.752192812e-20
0.0025
-3.315740924e-19
-5.534417281e-19
0.0025
-1.367853391e-19
-2.577257129e-19
0.0025
-8.307707122e-19
-5.830166127e-19
0.0025
-2.133432823e-19
-9.822536759e-19
0.0025
-6.541127792e-19
5.319918572e-19
0.0025
-3.875669193e-19
4.078043095e-19
0.0025
-4.246363519e-20
6.005990233e-19
0.0025
-3.323358651e-19
3.994064285e-19
0.0025
-1.71375181e-19
2.308782596e-19
0.0025
-4.151680459e-19
-1.996457467e-20
0.0025
-6.187957323e-19
-1.562242449e-19
0.0025
-7.236270859e-19
-3.164087166e-19
0.0025
-2.125752082e-19
-4.192394999e-19
0.0025
-3.868583544e-19
-3.020314835e-19
0.0025
-8.476921983e-20
-4.205009602e-19
0.0025
4.41241797e-19
-6.721891587e-19
0.0025
-1.375403798e-19
1.123251986e-18
0.0025
-3.585372608e-19
4.659724708e-19
0.0025
-2.927499419e-19
4.666467984e-19
0.0025
-1.894926607e-19
4.439255642e-20
0.0025
7.240208623e-20
1.730157565e-19
0.0025
-4.526578448e-19
-1.3253929e-19
0.0025
-4.526629482e-19
-2.191925998e-19
0.0025
-2.352384299e-19
-7.212010846e-20
0.0025
-1.835702063e-19
-1.815998936e-19
0.0025
-4.785811126e-19
1.348957476e-19
0.0025
4.76671988e-20
-2.498424216e-19
0.0025
4.241820454e-19
-9.658054862e-20
0.0025
7.141464938e-19
-3.248883697e-19
0.0025
3.700544471e-19
1.027221821e-18
0.0025
-2.090555346e-19
7.060929525e-19
0.0025
1.495559178e-19
2.025277664e-19
0.0025
-4.206181767e-19
-5.72179547e-20
0.0025
-3.051475661e-19
-3.546550597e-19
0.0025
-2.858937246e-19
-1.52373444e-19
0.0025
-4.913414739e-19
-2.229382838e-19
0.0025
-2.387824264e-19
4.995792693e-20
0.0025
5.229172324e-21
-6.046458231e-20
0.0025
-9.375618904e-20
-7.065588762e-20
0.0025
-3.281727681e-19
4.076945923e-19
0.0025
1.96430279e-19
1.503112822e-19
0.0025
3.745189359e-19
-3.877063851e-19
0.0025
4.515879437e-19
7.506781166e-20
0.0025
1.065985947e-19
3.013705504e-19
0.0025
-1.917613636e-19
7.263331101e-19
0.0025
2.316159848e-19
-4.986933644e-20
0.0025
-7.871789851e-20
-1.20697524e-19
0.0025
-1.046059701e-19
7.547155802e-20
0.0025
-2.148144348e-19
-1.854831008e-20
0.0025
2.16446896e-19
-1.864202059e-19
0.0025
-1.554258702e-19
-2.79512479e-19
0.0025
-3.382694728e-19
8.696069986e-20
0.0025
1.434318199e-20
1.717459516e-19
0.0025
1.125065339e-19
2.242277941e-19
0.0025
-1.009716405e-19
-6.408979342e-20
0.0025
1.716833762e-20
-2.258793503e-19
0.0025
-2.665413092e-19
-1.257237992e-19
0.0025
-1.693113309e-19
7.426060875e-20
0.0025
-3.287847856e-18
-3.029302515e-18
0.0025
-2.008333884e-18
-2.205630932e-18
0.0025
-2.200743633e-18
-2.552523496e-18
0.0025
-2.34637287e-18
-2.113742696e-18
0.0025
-1.891810397e-18
-1.569425638e-18
0.0025
-6.49880413e-19
-7.848916327e-19
0.0025
-1.310800437e-18
-8.390951488e-19
0.0025
-1.728318635e-18
-1.318697161e-18
0.0025
-1.136116646e-18
-7.834120204e-19
0.0025
-1.227083057e-18
-4.371990231e-19
0.0025
-8.696790788e-19
-1.250722212e-18
0.0025
-1.189305252e-18
-7.935361651e-19
0.0025
-1.548707667e-18
-7.20184039e-19
0.0025
-1.470759988e-18
-5.84940842e-19
0.0025
-8.386319704e-19
-4.877401367e-19
0.0025
-8.716075019e-19
-6.415065844e-19
0.0025
-9.62132763e-19
-9.246712506e-19
0.0025
-1.196642903e-18
-6.576789898e-19
0.0025
-1.473194622e-18
-6.099449451e-19
0.0025
-1.178548646e-18
-7.480890893e-19
0.0025
-1.399123897e-18
-1.007668531e-18
0.0025
-8.49536995e-19
-8.528357e-19
0.0025
-1.238915106e-18
-8.735768809e-19
0.0025
-9.902391686e-19
-3.079923655e-19
0.0025
-1.391742691e-18
-5.219450262e-19
0.0025
-1.395801294e-18
-8.704346888e-19
0.0025
-1.274377184e-18
-7.45683733e-19
0.0025
-7.368216691e-19
-1.014019366e-18
0.0025
-1.331220434e-18
-5.240087078e-19
0.0025
-9.377353109e-19
-2.958972318e-19
0.0025
-8.805411435e-19
-3.799176758e-19
0.0025
-1.329742908e-18
-2.265366208e-19
0.0025
-1.075691063e-18
-6.241144913e-19
0.0025
-1.227201736e-18
-7.032731939e-19
0.0025
-1.188420025e-18
-2.835129575e-19
0.0025
-1.051252203e-18
-5.625175234e-19
0.0025
-1.246009829e-18
5.900569759e-19
0.0025
-1.037230558e-18
-4.853843114e-19
0.0025
-1.137877782e-18
1.954900001e-20
0.0025
-1.450496406e-18
-5.53473083e-19
0.0025
-1.018769648e-18
-5.913124074e-19
0.0025
-1.260868311e-18
-4.1458058e-19
0.0025