/*--------------------------------*- C++ -*----------------------------------*\
| =========                 |                                                 |
| \\      /  F ield         | OpenFOAM: The Open Source CFD Toolbox           |
|  \\    /   O peration     | Version:  2212                                  |
|   \\  /    A nd           | Website:  www.openfoam.com                      |
|    \\/     M anipulation  |                                                 |
\*---------------------------------------------------------------------------*/
FoamFile
{
    version     2.0;
    format      ascii;
    arch        "LSB;label=32;scalar=64";
    class       volVectorField;
    location    "1.8";
    object      U;
}
// * * * * * * * * * * * * * * * * * * * * * * * * * * * * * * * * * * * * * //

dimensions      [0 1 -1 0 0 0 0];

internalField   nonuniform List<vector> 
42875
(
(1 -7.147375099e-17 2.056600095e-16)
(1 -2.444957565e-16 3.73252284e-16)
(1 -1.564866751e-16 2.506599554e-16)
(1 -7.117754839e-17 -9.094617713e-17)
(1 -4.037947558e-16 2.733084298e-16)
(1 -3.710721386e-16 3.280787658e-16)
(1 -2.574610635e-16 -4.670652442e-17)
(1 -6.950984926e-17 2.876102436e-16)
(1 -9.969706338e-17 8.211208594e-17)
(1 9.939724856e-17 -3.379438259e-16)
(1 -5.674969074e-16 -1.385908452e-16)
(1 -3.341377962e-16 3.806353782e-16)
(1 -3.089838214e-16 1.770477097e-16)
(1 -2.359718019e-16 3.435253453e-16)
(1 -3.682435656e-16 1.016655109e-16)
(1 -4.32674573e-17 -1.851946337e-16)
(1 -3.052816963e-16 2.191360927e-16)
(1 -1.216177624e-16 1.284082992e-16)
(1 6.405131075e-17 -5.309316024e-19)
(1 2.455781657e-16 -8.741617211e-18)
(1 -6.989306358e-16 -3.112283755e-16)
(1 -4.860613882e-16 2.145360063e-16)
(1 -2.349608441e-16 5.804185482e-17)
(1 -2.616224528e-16 2.534892941e-16)
(1 -3.832546603e-16 2.705952985e-16)
(1 -3.217657337e-16 9.450585017e-17)
(1 -2.164876717e-16 2.883478763e-16)
(1 -2.81964565e-16 1.862588727e-16)
(1 -1.304668386e-16 -7.989960401e-18)
(1 -4.287556445e-17 9.630895119e-17)
(1 -9.429089073e-17 3.669274797e-16)
(1 -2.469948507e-16 1.213871336e-16)
(1 -4.857128192e-17 -1.574291713e-16)
(1 5.323753498e-17 6.028226016e-17)
(1 1.975211104e-16 -1.35578549e-16)
(1 -6.870379306e-16 5.176488272e-17)
(1 -7.301596678e-16 1.622137201e-16)
(1 -2.374206349e-16 -1.663153842e-16)
(1 -4.232246883e-16 8.007608394e-17)
(1 -3.242549914e-16 1.821341046e-16)
(1 -4.163315937e-16 3.842692837e-17)
(1 -2.422288478e-16 3.782902478e-16)
(1 -2.63753849e-16 1.289005968e-16)
(1 -4.365073615e-16 6.320242342e-17)
(1 -3.250873324e-16 1.039810179e-16)
(1 -7.021824039e-17 4.291886922e-16)
(1 -1.413835936e-16 2.488976681e-16)
(1 -8.157097165e-17 -4.106382418e-18)
(1 -1.871499275e-16 2.672377478e-16)
(1 1.380082025e-16 -1.755445285e-16)
(1 3.280101878e-16 5.964225223e-17)
(1 -2.253277363e-16 3.497938009e-16)
(1 -9.476066449e-17 -4.788813412e-17)
(1 -1.730231083e-16 1.087451279e-16)
(1 1.815281406e-16 -1.371536169e-16)
(1 2.491487331e-16 8.470330809e-18)
(1 -7.717713784e-16 1.242135908e-16)
(1 -6.293705901e-16 3.179098557e-16)
(1 -3.30285619e-16 -1.018912815e-16)
(1 -3.910120947e-16 1.159616685e-16)
(1 -3.455226661e-16 8.386894021e-17)
(1 -4.070193392e-16 -6.335529866e-18)
(1 -3.306623925e-16 4.034859684e-16)
(1 -2.434300258e-16 4.120698563e-17)
(1 -5.007609575e-16 -5.010954372e-17)
(1 -2.964561991e-16 3.337395325e-17)
(1 -2.335393505e-16 2.768323389e-16)
(1 -2.189948331e-16 3.856509236e-16)
(1 -1.629132266e-16 1.37415595e-16)
(1 -3.363402192e-16 1.897217319e-16)
(1 -2.256179638e-16 -1.17285734e-16)
(1 1.689589751e-16 2.11850386e-16)
(1 -1.283620559e-16 3.59334615e-16)
(1 -3.607262682e-17 1.905959715e-16)
(1 -8.506454435e-17 3.471336402e-16)
(1 1.024121252e-16 -2.902801508e-17)
(1 4.428953314e-17 -1.154790868e-17)
(1 3.997870105e-17 4.448687492e-17)
(1 5.995172955e-17 1.271583607e-16)
(1 -6.313121236e-17 2.090257996e-16)
(1 9.590479708e-17 1.278143797e-16)
(1 1.499544878e-17 -4.545780192e-17)
(1 1.436766876e-16 -2.123880669e-17)
(1 1.64848021e-16 -9.834534683e-18)
(1 -9.603739509e-16 -1.692957241e-16)
(1 -7.115235995e-16 1.171742983e-16)
(1 -7.593917416e-16 -1.137178278e-16)
(1 -4.322802542e-16 1.721366462e-16)
(1 -5.307322335e-16 7.832712408e-17)
(1 -4.758808437e-16 -2.236921898e-18)
(1 -2.855632211e-16 3.36832267e-16)
(1 -2.457758856e-16 1.150919758e-16)
(1 -4.210089615e-16 -1.24350888e-16)
(1 -3.296940959e-16 -1.539276702e-16)
(1 -3.375605227e-16 2.0290704e-16)
(1 -2.416801221e-16 4.077273893e-16)
(1 -1.875947721e-16 7.817582634e-17)
(1 -2.719843076e-16 -4.844153719e-17)
(1 -4.902754311e-16 1.403045271e-16)
(1 -2.340692125e-16 3.536225807e-16)
(1 -2.285521243e-16 1.891485772e-16)
(1 -1.841430787e-16 2.864680489e-16)
(1 -2.395444358e-17 2.766829711e-16)
(1 -2.578480211e-16 2.594359302e-17)
(1 -1.115837848e-16 -9.811328978e-17)
(1 7.089272704e-17 3.258740901e-16)
(1 5.324549988e-17 2.73229396e-16)
(1 -4.363023066e-17 2.018993464e-16)
(1 3.893970503e-17 2.483013457e-16)
(1 -1.256580899e-16 9.436075007e-17)
(1 5.971604761e-17 -1.029009686e-17)
(1 9.733776959e-17 -1.351252949e-17)
(1 1.771160196e-18 4.527706501e-17)
(1 1.977331919e-17 1.251644811e-16)
(1 2.163802122e-16 2.425887979e-16)
(1 7.590983347e-17 1.309784116e-16)
(1 -5.446796228e-17 1.21002009e-16)
(1 9.034525838e-17 -3.557330779e-17)
(1 1.376786859e-16 2.51275305e-17)
(1 2.835080919e-16 -4.428103368e-17)
(1 -9.14046637e-16 -3.777230282e-16)
(1 -7.106623599e-16 3.218735195e-18)
(1 -8.780859161e-16 -2.359270326e-16)
(1 -5.563579517e-16 8.490748878e-17)
(1 -7.234879763e-16 -2.261377862e-17)
(1 -6.647005134e-16 4.272657167e-18)
(1 -4.076606095e-16 2.928476672e-16)
(1 -4.574648844e-16 1.089105619e-16)
(1 -4.07313785e-16 -1.330296435e-16)
(1 -4.647968898e-16 6.467451821e-18)
(1 -2.568369118e-16 2.403289421e-16)
(1 -1.845561064e-16 2.931468741e-16)
(1 -1.890472101e-16 7.780005118e-17)
(1 -2.450210372e-16 -1.378004991e-16)
(1 -3.571218894e-16 2.141531972e-16)
(1 -3.955164355e-16 2.939411432e-16)
(1 -4.439859206e-16 1.871013683e-16)
(1 -1.984337281e-16 2.703830733e-16)
(1 6.348517803e-17 1.222300591e-16)
(1 -4.056158772e-16 7.62698502e-17)
(1 -2.860779439e-16 -1.678577565e-16)
(1 1.558139124e-18 2.859217312e-16)
(1 -2.518530549e-16 3.449485868e-16)
(1 -2.860928356e-16 1.553954234e-16)
(1 -1.551870073e-16 9.739457901e-17)
(1 -2.60773494e-16 1.31327089e-16)
(1 -4.093862915e-17 3.998091703e-17)
(1 -5.832473751e-17 -9.861249811e-17)
(1 -2.242001253e-17 2.137699463e-16)
(1 2.511314284e-17 3.537966914e-16)
(1 1.207389685e-16 2.350771853e-16)
(1 -7.343057346e-17 2.55296464e-16)
(1 -1.003231494e-16 1.444878094e-16)
(1 8.457871745e-17 6.306218003e-18)
(1 9.280058476e-17 5.841802062e-17)
(1 1.881945862e-16 -1.826162377e-16)
(1 2.140937561e-17 3.135103938e-17)
(1 1.77132652e-17 1.615989838e-16)
(1 9.066613211e-17 3.264505705e-17)
(1 -7.34782928e-17 1.628102993e-17)
(1 -1.41299646e-16 -2.110977586e-16)
(1 -9.380192862e-17 -3.905143004e-17)
(1 -1.070231546e-17 -4.903569699e-17)
(1 8.224619783e-17 6.982368802e-17)
(1 2.799931264e-16 1.065947306e-16)
(1 -7.271657501e-16 -6.448186488e-16)
(1 -7.663787165e-16 -1.666638276e-16)
(1 -7.47996155e-16 -5.909636529e-16)
(1 -6.005311807e-16 -1.95467143e-16)
(1 -7.770395857e-16 -1.712616225e-16)
(1 -8.500900575e-16 -1.349870273e-16)
(1 -5.27881788e-16 2.299098914e-16)
(1 -4.172014611e-16 -5.288910481e-17)
(1 -6.582162363e-16 4.785449749e-17)
(1 -7.189849679e-16 -3.854598392e-17)
(1 -1.313757994e-16 2.317350208e-16)
(1 -3.255830492e-16 1.997632203e-16)
(1 -3.150842197e-16 1.068486984e-16)
(1 -4.197716013e-16 -7.012436878e-17)
(1 -4.90998377e-16 -1.113614268e-16)
(1 -3.326935666e-16 5.705142261e-17)
(1 -5.183980877e-16 2.387197246e-16)
(1 -1.889018892e-16 1.936791023e-16)
(1 7.606313662e-17 1.023125719e-17)
(1 -2.747652123e-16 1.730524911e-16)
(1 -3.465854387e-16 9.145392995e-17)
(1 -1.324573405e-16 3.090319972e-16)
(1 -2.835060701e-16 3.134916635e-16)
(1 -4.358005716e-16 1.363016617e-16)
(1 -1.708749553e-16 -2.396153918e-17)
(1 -1.42741475e-16 1.512724591e-16)
(1 -2.738784437e-16 1.079986196e-16)
(1 -1.969121129e-16 -1.919259746e-16)
(1 -8.30204835e-17 3.635546148e-16)
(1 4.496814032e-19 3.715863389e-16)
(1 -5.865225002e-17 1.645227423e-16)
(1 -3.392393175e-16 2.389532775e-16)
(1 -2.557518052e-16 -1.41929212e-17)
(1 -5.671225916e-17 7.977220801e-17)
(1 -6.8856844e-17 -1.395079903e-16)
(1 -2.037843484e-16 -2.054678795e-16)
(1 2.076502623e-16 3.201536732e-16)
(1 -3.163082184e-17 1.699542884e-16)
(1 -2.148173546e-17 -3.040807343e-17)
(1 -1.807719734e-16 1.52317294e-16)
(1 -1.461180049e-16 -5.504743651e-18)
(1 -5.615576025e-17 4.082011827e-17)
(1 -5.100772065e-17 -2.650434189e-17)
(1 7.318475752e-17 -5.15605664e-17)
(1 2.568719922e-16 -1.459153423e-16)
(1 -7.263984727e-17 2.294789294e-16)
(1 1.895051229e-16 1.90381216e-16)
(1 1.394070032e-17 -7.667664791e-17)
(1 -2.817131185e-16 8.987479198e-17)
(1 1.497638749e-16 -1.882798659e-16)
(1 -2.546725671e-16 -5.96426865e-18)
(1 -3.766119483e-17 -9.403339719e-17)
(1 -3.110466956e-17 -2.297546611e-16)
(1 -5.132375559e-17 1.021534036e-17)
(1 1.788480342e-16 1.991129606e-16)
(1 -4.572185491e-16 -6.347465427e-16)
(1 -6.613647476e-16 -3.665325044e-16)
(1 -4.772024802e-16 -8.159247532e-16)
(1 -5.992830873e-16 -2.553213663e-16)
(1 -6.90816332e-16 -3.163775083e-16)
(1 -6.325240315e-16 -2.355548484e-16)
(1 -8.268469061e-16 -1.963340767e-17)
(1 -6.040725433e-16 -3.985987854e-16)
(1 -8.247764527e-16 -7.927827244e-17)
(1 -7.975112627e-16 -4.890975497e-16)
(1 -1.46774594e-16 1.02186939e-16)
(1 -4.990262617e-16 6.542494424e-17)
(1 -4.42868457e-16 7.515316185e-17)
(1 -6.827932201e-16 -1.340945936e-16)
(1 -7.73307864e-16 -3.574588823e-16)
(1 -4.045136568e-16 -1.600480698e-17)
(1 -4.380424431e-16 2.564484561e-16)
(1 -2.398831886e-16 1.463806518e-16)
(1 -1.854779884e-16 -5.106776634e-17)
(1 -4.681212653e-16 -4.73673495e-18)
(1 -3.522672523e-16 -2.691131045e-16)
(1 -1.772812547e-16 3.693422626e-16)
(1 -1.973678136e-16 1.099179236e-16)
(1 -4.39607768e-16 1.061818561e-16)
(1 -1.619426157e-16 6.46806145e-17)
(1 8.581803735e-18 1.572637781e-16)
(1 -3.370651558e-16 7.782403528e-17)
(1 -3.792398462e-16 -3.415494557e-17)
(1 -1.663646088e-16 3.80455738e-16)
(1 -3.546169685e-17 2.390477424e-16)
(1 -3.544630559e-16 1.680371368e-16)
(1 -5.566891219e-16 -2.831728205e-18)
(1 -2.859738935e-16 -2.927138725e-17)
(1 -3.182130751e-17 2.626530409e-17)
(1 -2.186280594e-16 -1.67164205e-16)
(1 -2.86787837e-16 -1.625929099e-16)
(1 2.554182372e-16 3.930639158e-16)
(1 2.020832672e-17 2.486116756e-16)
(1 -1.50648635e-16 3.839510996e-16)
(1 -6.007640214e-17 2.169606979e-16)
(1 -1.387670392e-16 7.180084905e-17)
(1 -2.258691753e-16 1.248282244e-16)
(1 -1.779642416e-16 -8.201455815e-17)
(1 -5.930708602e-17 -2.187726049e-16)
(1 -6.323509198e-17 -2.104016149e-16)
(1 -5.51819967e-17 8.575674464e-17)
(1 6.218270192e-17 3.7426426e-16)
(1 1.906624638e-17 -5.198263887e-17)
(1 -2.091589742e-16 1.591560693e-16)
(1 2.561743937e-17 1.285368694e-18)
(1 -1.99441634e-16 8.01487427e-17)
(1 -5.644536542e-17 -8.130901853e-17)
(1 -4.396615061e-17 -1.967228475e-16)
(1 8.860224973e-17 -8.165305807e-17)
(1 2.486902494e-16 1.23165998e-16)
(1 -5.632671605e-17 2.037344747e-16)
(1 9.649484349e-17 1.657332627e-17)
(1 -1.252503871e-16 -1.3591084e-16)
(1 -1.394359749e-16 -1.811088068e-16)
(1 -1.051434406e-16 -1.567786658e-16)
(1 -2.830392593e-17 1.650743716e-16)
(1 4.256813547e-17 9.980282128e-17)
(1 5.537669186e-17 -1.128381787e-16)
(1 -2.206968851e-16 3.134848456e-17)
(1 1.101920363e-17 -1.548681551e-16)
(1 -8.480722901e-17 -1.138886402e-17)
(1 -1.448362536e-16 -5.532322628e-16)
(1 -4.640835285e-16 -6.042126349e-16)
(1 -4.07487731e-16 -7.0491782e-16)
(1 -7.220825023e-16 -4.674226973e-16)
(1 -4.811728106e-16 -5.701520479e-16)
(1 -4.402972894e-16 -2.655998862e-16)
(1 -8.563545361e-16 -2.799934398e-16)
(1 -6.822165932e-16 -4.522375727e-16)
(1 -6.04387067e-16 -1.427386179e-16)
(1 -6.332984221e-16 -2.818905671e-16)
(1 -4.314803971e-16 -1.213165669e-16)
(1 -7.614197031e-16 -1.63656785e-16)
(1 -5.58021191e-16 -1.833934006e-16)
(1 -7.863811953e-16 -2.92456035e-16)
(1 -6.413641961e-16 -4.474179682e-16)
(1 -6.308676407e-16 -4.789689236e-18)
(1 -3.598320686e-16 1.021992298e-16)
(1 -3.783136722e-16 -4.061924907e-17)
(1 -5.279867984e-16 -1.3313343e-16)
(1 -7.301691374e-16 -1.689956405e-16)
(1 -5.477297732e-16 -3.806883793e-16)
(1 -1.361959203e-16 2.553059059e-16)
(1 -3.875681662e-16 2.81384652e-17)
(1 -2.953923269e-16 9.341247535e-17)
(1 -3.715681379e-16 1.927043101e-16)
(1 -6.083675086e-17 -5.910128102e-18)
(1 -2.828192643e-16 -1.212855267e-16)
(1 -3.298444146e-16 7.549765039e-17)
(1 -2.641134113e-16 9.585034495e-17)
(1 -1.92319474e-16 1.404184438e-16)
(1 -4.2933578e-16 2.41198469e-16)
(1 -4.493024687e-16 -1.209366515e-16)
(1 -2.901066822e-16 5.082041467e-17)
(1 -5.287424362e-17 5.142732207e-18)
(1 -3.680794429e-16 -8.46057178e-17)
(1 -4.367374505e-16 -1.405232792e-16)
(1 4.875075233e-17 3.106237308e-16)
(1 -2.421223744e-16 2.432759829e-16)
(1 -1.724820352e-16 3.863136009e-16)
(1 -4.188727828e-17 2.67460806e-16)
(1 -1.758643057e-16 2.751354171e-16)
(1 -7.072259779e-17 1.030844027e-16)
(1 -1.58340459e-16 -1.518869936e-16)
(1 -2.126360262e-16 -2.034508873e-16)
(1 -2.147569468e-16 -1.032205202e-16)
(1 1.638325981e-16 2.376693086e-17)
(1 -3.128177547e-17 3.417852586e-16)
(1 -1.057328767e-16 1.489849717e-16)
(1 -4.118604789e-17 1.991371039e-16)
(1 -8.644714862e-17 2.033471169e-16)
(1 -1.615380022e-16 2.064608622e-16)
(1 -1.100714144e-16 -1.565010837e-17)
(1 7.819381584e-17 -1.783243443e-16)
(1 -6.061902362e-17 3.032147679e-17)
(1 6.082053103e-17 -2.018448444e-16)
(1 -2.706896293e-16 3.509640196e-16)
(1 -4.633748486e-18 1.143038758e-17)
(1 3.332656825e-17 -6.914307174e-17)
(1 -8.414933485e-17 1.42315704e-16)
(1 -9.187058185e-17 6.504534296e-17)
(1 -1.256360179e-16 1.488767833e-16)
(1 -2.372832962e-17 -3.155417278e-17)
(1 -6.620215663e-17 -1.020257944e-16)
(1 -6.969580566e-17 -2.24711648e-17)
(1 2.081704606e-16 -7.405776584e-17)
(1 2.399388329e-17 -4.307336585e-17)
(1 -2.634896695e-16 2.235257671e-16)
(1 -8.562260696e-17 6.943065156e-18)
(1 -2.862107044e-16 -2.761666436e-16)
(1 -4.501457484e-18 -1.999263537e-16)
(1 -3.037006297e-16 7.256168478e-18)
(1 -7.378128605e-17 -1.394378348e-17)
(1 1.247686137e-16 5.551445405e-18)
(1 -1.653823782e-16 -1.441757669e-16)
(1 4.727672112e-17 -1.689856676e-16)
(1 -2.056131887e-16 1.390076888e-17)
(1 -2.324913069e-16 5.145250928e-17)
(1 2.227177255e-16 -1.812249644e-16)
(1 -1.638857167e-16 -5.388969809e-16)
(1 -2.650797025e-16 -8.669421634e-16)
(1 -4.402376316e-16 -6.668954379e-16)
(1 -9.78276356e-16 -5.703404427e-16)
(1 -3.87679077e-16 -6.960685928e-16)
(1 -4.116264195e-16 -2.432210351e-16)
(1 -8.557295132e-16 -2.084803871e-16)
(1 -5.935034463e-16 -6.141568557e-16)
(1 -4.58263042e-16 -3.093866618e-16)
(1 -5.469847776e-16 -1.736794612e-16)
(1 -5.448102562e-16 -1.979513164e-16)
(1 -7.684794496e-16 -4.358067299e-16)
(1 -6.647894301e-16 -2.900577118e-16)
(1 -6.824703831e-16 -2.574296354e-16)
(1 -5.782820857e-16 -3.419000003e-16)
(1 -7.794656807e-16 -9.463286218e-17)
(1 -4.75754092e-16 -1.7487966e-16)
(1 -6.333630117e-16 -1.648658263e-16)
(1 -6.79232611e-16 -2.663051573e-16)
(1 -5.734968651e-16 -3.604646769e-16)
(1 -6.569016224e-16 -2.963037514e-16)
(1 -1.853954447e-16 1.87039063e-16)
(1 -5.189869779e-16 -4.59771996e-17)
(1 -2.636584817e-16 -2.213914888e-17)
(1 -5.551247794e-16 1.201589321e-16)
(1 -2.018182223e-16 -1.241193443e-16)
(1 -4.868255712e-16 -1.459627059e-16)
(1 -4.74122596e-16 -1.080011944e-16)
(1 -4.063906836e-16 -2.613868859e-16)
(1 -3.472728328e-16 1.93159431e-16)
(1 -4.894367773e-16 1.930318731e-16)
(1 -4.069671449e-16 -6.304947466e-17)
(1 -2.743064665e-16 -3.487654086e-17)
(1 -2.251312711e-16 -4.387255593e-17)
(1 -2.638083256e-16 -3.435508657e-17)
(1 -4.717084489e-16 -9.209249299e-18)
(1 -3.104214854e-16 1.491820738e-16)
(1 -4.781981129e-16 -3.473043978e-17)
(1 -3.012673549e-16 4.348496116e-17)
(1 -2.332977105e-16 2.634841483e-16)
(1 -2.385623308e-16 2.306849225e-16)
(1 -3.959388628e-17 1.436906699e-16)
(1 5.44956672e-17 -2.012297703e-16)
(1 -5.349434963e-16 -4.366208904e-17)
(1 -3.010579089e-16 -1.732815513e-16)
(1 6.990212353e-17 4.286274334e-17)
(1 -2.726943213e-16 1.856105086e-16)
(1 -1.817793743e-16 2.392181556e-16)
(1 -1.712791881e-18 4.427787582e-17)
(1 -3.13454846e-16 2.705968269e-16)
(1 -2.461547988e-16 1.874372832e-16)
(1 -1.228849279e-16 -5.450629937e-17)
(1 7.013783392e-17 -1.500729575e-16)
(1 -2.12485838e-16 3.314355882e-17)
(1 -1.327362525e-16 -3.26369766e-16)
(1 -2.18160786e-16 3.375440119e-16)
(1 7.237416898e-17 8.972736269e-17)
(1 1.063262367e-16 1.772176057e-16)
(1 -1.189417398e-16 2.114383864e-16)
(1 -1.079597264e-16 1.209168038e-16)
(1 8.767362729e-18 8.174307641e-17)
(1 -1.711703094e-16 -1.461039155e-17)
(1 -1.620691009e-16 -5.026006515e-17)
(1 -1.552268512e-17 2.345191465e-17)
(1 1.872590886e-16 -8.74460687e-17)
(1 2.711813237e-17 -3.104219509e-16)
(1 -2.56184245e-16 1.873200469e-16)
(1 -1.468141655e-16 2.125882197e-16)
(1 -1.893970503e-16 -2.266155902e-17)
(1 1.039378152e-16 -4.224527928e-17)
(1 -1.628120393e-16 1.463623368e-16)
(1 -1.269236807e-16 5.810058396e-17)
(1 2.123498551e-17 -6.941316718e-17)
(1 -1.886505794e-16 -1.991708394e-16)
(1 -6.477665962e-17 -1.275966384e-16)
(1 -7.498179152e-17 -3.443038873e-17)
(1 -5.917788338e-17 3.930037221e-17)
(1 3.080686257e-16 -8.487159155e-17)
(1 -1.529330145e-16 2.465874707e-16)
(1 -2.29171326e-16 1.020252061e-17)
(1 -9.572479856e-17 -8.663886587e-17)
(1 1.674759009e-16 9.043953284e-17)
(1 1.381926612e-16 1.064529514e-16)
(1 7.312385642e-17 2.082166604e-17)
(1 -1.916009038e-16 1.683568718e-16)
(1 4.5559905e-17 -3.456944012e-16)
(1 -1.890702138e-16 1.028134302e-16)
(1 1.3313447e-16 4.234356499e-17)
(1 -3.937389975e-18 1.543050604e-17)
(1 4.806262259e-17 6.368110433e-17)
(1 2.052766348e-16 -6.4999499e-18)
(1 -4.338819565e-16 -5.910256027e-16)
(1 -2.792136122e-16 -9.454724343e-16)
(1 -5.380412768e-16 -7.967941215e-16)
(1 -1.255770645e-15 -7.942676069e-16)
(1 -5.358314738e-16 -8.821111696e-16)
(1 -3.286522537e-16 -2.827710309e-16)
(1 -8.154760055e-16 -1.285493706e-16)
(1 -6.176617017e-16 -7.121330001e-16)
(1 -4.796988212e-16 -3.727376032e-16)
(1 -5.573571956e-16 -3.087822885e-16)
(1 -4.707596289e-16 -2.636784315e-16)
(1 -7.132866254e-16 -4.571739867e-16)
(1 -6.523399853e-16 -3.064228594e-16)
(1 -5.455046844e-16 -2.387189914e-16)
(1 -4.801391683e-16 -2.092122948e-16)
(1 -7.190639807e-16 -1.657796885e-16)
(1 -4.625580219e-16 -4.304732025e-16)
(1 -7.874076467e-16 -1.200158715e-16)
(1 -6.464356463e-16 -2.157941791e-16)
(1 -5.572534658e-16 -5.029697463e-16)
(1 -7.671367967e-16 -5.237746661e-16)
(1 -3.26366141e-16 1.298948277e-16)
(1 -5.845044586e-16 -1.540401655e-16)
(1 -4.213222645e-16 5.824068433e-17)
(1 -5.370915934e-16 -1.789597737e-16)
(1 -4.124394171e-16 -1.882099802e-16)
(1 -5.21520689e-16 -1.561273343e-16)
(1 -4.58740712e-16 -1.509908811e-16)
(1 -6.819884206e-16 -1.825785985e-16)
(1 -3.371152696e-16 1.833484668e-16)
(1 -4.957329236e-16 -6.693298246e-17)
(1 -3.860999759e-16 -4.14590087e-17)
(1 -3.197556309e-16 -1.280446405e-16)
(1 -4.392435404e-16 -1.413780058e-16)
(1 -4.817098728e-16 -8.743813563e-17)
(1 -4.970635856e-16 -1.419310881e-16)
(1 -7.304104951e-16 2.052730618e-16)
(1 -4.573596036e-16 -2.574167797e-16)
(1 -4.126144328e-16 -2.111675031e-17)
(1 -4.694903429e-16 9.334706951e-17)
(1 -3.877750565e-16 5.867973889e-17)
(1 -2.78317191e-16 -6.895995926e-17)
(1 -4.778870052e-19 -1.73945669e-16)
(1 -5.434118522e-16 -5.328496144e-17)
(1 -3.700444411e-16 -2.557408085e-16)
(1 -1.850398977e-16 -1.702705194e-17)
(1 -3.848542149e-16 -3.71434068e-17)
(1 -4.570674332e-16 1.707588489e-16)
(1 -2.271845291e-16 -8.667837681e-17)
(1 -3.908697172e-16 2.04980306e-16)
(1 -3.160586229e-16 -7.029044739e-17)
(1 -2.984844786e-16 -1.17044628e-16)
(1 -1.284779642e-16 -1.21202565e-16)
(1 -3.729181307e-16 -9.248108765e-17)
(1 -3.317429304e-16 -2.908167192e-16)
(1 -7.7950609e-17 2.499568957e-16)
(1 3.315474734e-17 1.945609948e-16)
(1 -3.742262953e-17 3.121058756e-16)
(1 -2.954322616e-16 1.937830666e-16)
(1 -2.372263041e-16 2.622597264e-17)
(1 -2.829414797e-16 -3.847724003e-18)
(1 -2.913409388e-16 -1.718127392e-16)
(1 -8.208310974e-17 -1.266269101e-16)
(1 -6.701259242e-17 -2.520914355e-17)
(1 -1.286155018e-16 -5.695468874e-17)
(1 3.703234273e-17 -5.058765684e-16)
(1 -2.824831951e-16 1.98465493e-16)
(1 -7.014706543e-17 2.460225895e-16)
(1 6.760680281e-17 2.731463281e-16)
(1 5.895340271e-17 1.779654886e-16)
(1 -7.784094619e-17 1.651465931e-16)
(1 -6.371244284e-17 1.381368769e-16)
(1 -1.464801761e-16 -1.06471943e-16)
(1 -2.453074114e-16 -1.730595607e-16)
(1 -9.58970534e-17 -8.484604637e-17)
(1 -2.758910303e-17 -7.0984583e-17)
(1 8.587016365e-17 -1.276505713e-16)
(1 2.937972097e-16 -1.736288668e-16)
(1 -2.448181506e-16 4.063595947e-16)
(1 -2.186965661e-16 1.04634528e-16)
(1 -1.563676135e-16 9.238441047e-17)
(1 1.636359897e-16 1.670527515e-16)
(1 9.192931505e-17 1.092784502e-16)
(1 -1.599307817e-17 -1.73826943e-17)
(1 -2.537736598e-16 2.356868463e-17)
(1 -5.221220983e-17 -1.990562151e-16)
(1 -1.301073235e-16 8.529865339e-18)
(1 -3.948890747e-17 2.892673949e-17)
(1 2.99840393e-17 -7.913168446e-17)
(1 1.850520064e-16 8.984375675e-17)
(1 2.381457674e-16 -6.946989343e-17)
(1 2.808784023e-17 9.989590391e-17)
(1 -2.185291867e-16 3.723521697e-16)
(1 6.382986873e-17 -2.044814326e-16)
(1 -3.568103851e-17 1.923195589e-18)
(1 -5.133486777e-17 -1.452309865e-17)
(1 -1.357626476e-17 7.298130568e-19)
(1 -2.825516517e-16 -2.120043099e-17)
(1 -1.035171669e-16 -9.472395744e-17)
(1 1.875471789e-16 -1.401722883e-16)
(1 -1.298228387e-16 -1.025152344e-16)
(1 -6.863887354e-17 1.960286866e-16)
(1 -6.209953598e-17 2.566954263e-16)
(1 2.345995277e-16 -1.135577187e-16)
(1 7.364435446e-17 1.351925934e-16)
(1 -1.012073368e-15 -9.106742448e-16)
(1 -4.235088261e-16 -9.362920734e-16)
(1 -7.719179616e-16 -8.834836783e-16)
(1 -1.193128549e-15 -8.746334508e-16)
(1 -6.108666791e-16 -8.554703345e-16)
(1 -1.369047125e-16 -3.001020706e-16)
(1 -8.020030169e-16 -1.929395796e-16)
(1 -7.175133131e-16 -7.658195133e-16)
(1 -4.003948487e-16 -3.496101877e-16)
(1 -4.780318489e-16 -2.728803492e-16)
(1 -2.974532909e-16 -3.571592843e-16)
(1 -7.363293388e-16 -3.28502163e-16)
(1 -6.423273669e-16 -3.471161469e-16)
(1 -5.203328455e-16 -2.558433164e-16)
(1 -3.578072594e-16 -2.20066755e-16)
(1 -5.602685318e-16 -1.77107359e-16)
(1 -4.231182131e-16 -5.364913567e-16)
(1 -7.779369068e-16 -2.867746394e-16)
(1 -5.694493509e-16 -1.880918272e-16)
(1 -4.844694793e-16 -3.770908595e-16)
(1 -6.790721219e-16 -5.476266596e-16)
(1 -3.209564905e-16 -5.464660262e-17)
(1 -6.284098933e-16 -3.083773829e-16)
(1 -4.708200358e-16 -8.964199573e-17)
(1 -5.963529074e-16 -2.446078727e-16)
(1 -6.391116643e-16 -2.157295486e-16)
(1 -5.706514586e-16 -3.324716307e-16)
(1 -2.98011838e-16 -3.625912495e-16)
(1 -6.664778911e-16 -7.2841026e-17)
(1 -2.684436062e-16 1.188530687e-16)
(1 -5.098860911e-16 -1.238681655e-17)
(1 -3.278273916e-16 -2.685644545e-17)
(1 -3.99424939e-16 -1.264095285e-16)
(1 -4.429205839e-16 -1.902138514e-16)
(1 -4.790412821e-16 -7.692762101e-17)
(1 -5.064559434e-16 -1.001050498e-16)
(1 -8.471194098e-16 4.228928184e-16)
(1 -4.405025108e-16 -1.695124461e-16)
(1 -3.114243783e-16 2.062423965e-17)
(1 -4.895117004e-16 -1.33285489e-16)
(1 -4.887128014e-16 -7.692634775e-17)
(1 -5.395657791e-16 -2.427032924e-16)
(1 -2.507388725e-16 -1.59116931e-16)
(1 -5.100894948e-16 -1.570883766e-16)
(1 -4.355266578e-16 -2.615827644e-16)
(1 -4.021883422e-16 1.636216941e-17)
(1 -4.058008419e-16 5.264236274e-17)
(1 -5.617269465e-16 5.664159015e-17)
(1 -4.539692016e-16 -8.091271885e-17)
(1 -4.960779042e-16 1.347614395e-16)
(1 -2.305401112e-16 -2.457278182e-16)
(1 -4.906543232e-16 -1.162088921e-16)
(1 -3.336287591e-16 -1.158823056e-16)
(1 -3.668632491e-16 -1.976232324e-16)
(1 -3.566306297e-16 -1.740144552e-16)
(1 -1.891188568e-16 6.486791102e-17)
(1 -2.860729719e-16 9.928681347e-17)
(1 -1.988057021e-16 2.443282202e-16)
(1 -3.150264935e-16 1.564814952e-16)
(1 -4.250618863e-16 1.110679042e-16)
(1 -3.713056676e-16 3.601489585e-17)
(1 -3.267361177e-16 -2.301100814e-16)
(1 -6.739677929e-17 -2.196569023e-16)
(1 -1.304493403e-16 -8.102235022e-17)
(1 -4.353915751e-16 -1.84531021e-16)
(1 -1.282074177e-16 -4.598179656e-16)
(1 -3.18716658e-16 1.594987789e-16)
(1 -1.711434383e-18 1.643512477e-16)
(1 5.199965378e-17 3.376739611e-16)
(1 -1.814332419e-16 2.566087942e-16)
(1 -9.618683444e-18 1.543112144e-16)
(1 -6.869484401e-17 1.795285518e-16)
(1 -2.998151458e-16 -7.413182748e-17)
(1 -2.70058673e-16 -2.583338181e-17)
(1 4.737607319e-18 -1.34637928e-16)
(1 -8.205335233e-17 -2.364107677e-17)
(1 7.329091778e-17 -2.512779084e-16)
(1 1.412684488e-16 -2.856956305e-16)
(1 -2.219316233e-16 4.322180978e-16)
(1 -1.869876357e-16 2.089590539e-16)
(1 -9.992841985e-17 1.25070432e-16)
(1 -2.091428707e-17 1.099098087e-16)
(1 -2.141760342e-17 7.110111239e-17)
(1 -1.582627286e-16 2.009274495e-17)
(1 -1.788582044e-16 -1.735138017e-16)
(1 -1.739831345e-16 -2.770780673e-17)
(1 -1.527276412e-16 -4.666203451e-17)
(1 -2.410213705e-16 3.432272349e-17)
(1 1.110073583e-16 -1.955893015e-16)
(1 2.637084099e-16 6.925373263e-17)
(1 2.977536344e-16 -7.391349714e-17)
(1 1.33293423e-16 3.315779694e-16)
(1 -1.209942786e-16 5.035669274e-16)
(1 -1.709477666e-18 1.098244726e-16)
(1 -6.229319091e-17 8.663216345e-17)
(1 -9.967367516e-18 -1.241351474e-16)
(1 -1.360546501e-16 -4.401460795e-17)
(1 -3.233493547e-16 -3.17801595e-17)
(1 -9.216095175e-17 -4.547283855e-17)
(1 1.312050061e-16 -2.566040148e-17)
(1 -1.049451447e-16 -8.705701754e-17)
(1 -1.133426455e-16 2.144845755e-16)
(1 8.597342448e-17 1.769883185e-16)
(1 2.352123944e-16 -1.319842595e-16)
(1 2.552045047e-16 -5.703546305e-17)
(1 1.369402647e-17 -2.962351486e-17)
(1 -1.907811998e-16 3.787121758e-16)
(1 1.775891085e-16 -1.338204054e-16)
(1 -2.780051311e-16 -6.811096354e-17)
(1 -2.602597426e-16 -1.787416578e-16)
(1 -1.029553921e-16 -4.844431261e-17)
(1 7.149525973e-17 -1.015663734e-16)
(1 -2.244316656e-16 -1.707652926e-16)
(1 -6.779600813e-17 8.504726061e-17)
(1 4.903318616e-17 5.414464829e-17)
(1 -1.768012008e-16 -1.687482802e-17)
(1 8.062334458e-17 1.786635368e-16)
(1 1.002779874e-16 -3.929232108e-17)
(1 -6.397859784e-18 -1.16548506e-16)
(1 -6.768315338e-17 1.276777254e-16)
(1 -1.503370891e-15 -1.271813236e-15)
(1 -7.170045933e-16 -8.626606595e-16)
(1 -9.291338671e-16 -1.006841967e-15)
(1 -1.063911108e-15 -9.019339797e-16)
(1 -7.940756685e-16 -9.087924734e-16)
(1 -2.988949166e-16 -4.973761729e-16)
(1 -7.271130073e-16 -3.113915499e-16)
(1 -7.319304784e-16 -6.978502204e-16)
(1 -1.599120909e-16 -3.346856379e-16)
(1 -4.803281997e-16 -9.328087303e-17)
(1 -2.385077465e-16 -5.376110508e-16)
(1 -6.77935254e-16 -3.094303233e-16)
(1 -7.14143917e-16 -3.257511791e-16)
(1 -5.521870564e-16 -2.649885408e-16)
(1 -2.889788965e-16 -1.95281531e-16)
(1 -4.610205423e-16 -1.546136031e-16)
(1 -3.107412039e-16 -4.810400035e-16)
(1 -6.188526405e-16 -3.869618503e-16)
(1 -6.2211564e-16 -2.164876502e-16)
(1 -3.759401514e-16 -1.984850124e-16)
(1 -5.114985958e-16 -3.560887565e-16)
(1 -1.796469421e-16 -2.903887364e-16)
(1 -5.837427266e-16 -3.499475496e-16)
(1 -3.510036637e-16 -2.634627949e-16)
(1 -6.640596653e-16 -1.204965331e-16)
(1 -5.427709524e-16 -2.634162131e-16)
(1 -5.529372032e-16 -3.345390976e-16)
(1 -2.111352751e-16 -5.093712397e-16)
(1 -5.481069588e-16 -2.117588596e-16)
(1 -3.262672404e-16 -1.735354479e-16)
(1 -5.089910172e-16 -1.288204422e-16)
(1 -4.951556861e-16 1.264510826e-17)
(1 -5.651246159e-16 -3.07405729e-16)
(1 -4.486253414e-16 -4.134736286e-16)
(1 -4.240803537e-16 -5.789326438e-17)
(1 -4.348348186e-16 -1.703559017e-16)
(1 -6.637313596e-16 3.781754311e-16)
(1 -4.365025956e-16 -1.259148078e-17)
(1 -1.909813167e-16 1.546309407e-17)
(1 -6.380298168e-16 -7.973420217e-17)
(1 -3.539864227e-16 -1.91797942e-16)
(1 -5.585196133e-16 -2.112027583e-16)
(1 -4.772077087e-16 -1.475783189e-16)
(1 -4.842530651e-16 -9.028275698e-17)
(1 -3.629456033e-16 -2.244909401e-16)
(1 -2.645922394e-16 1.694288987e-16)
(1 -4.926669268e-16 2.501191669e-16)
(1 -6.318323422e-16 -2.151547416e-16)
(1 -5.457303611e-16 2.016916583e-17)
(1 -4.538669949e-16 -8.062464581e-17)
(1 -3.446495232e-16 -3.045413493e-16)
(1 -4.895893414e-16 -2.854123132e-17)
(1 -3.462071916e-16 -1.111845911e-16)
(1 -4.311526922e-16 -2.39254382e-16)
(1 -4.231480876e-16 -8.275572192e-17)
(1 -2.782721687e-16 2.008888403e-16)
(1 -3.863931175e-16 5.229844689e-17)
(1 -4.019366809e-16 1.44297888e-16)
(1 -3.228002698e-16 6.23234115e-17)
(1 -4.516227686e-16 4.215862631e-17)
(1 -4.828640787e-16 2.905710942e-17)
(1 -2.997113917e-16 -2.017180853e-16)
(1 -3.640858226e-16 -2.061152918e-16)
(1 -1.656278944e-16 -2.11979108e-16)
(1 -5.087320413e-16 -2.091530641e-16)
(1 -4.173218774e-16 -2.415982046e-16)
(1 -3.163373879e-16 1.567266775e-16)
(1 -6.735287941e-17 6.615979491e-17)
(1 -8.309268222e-17 4.053896027e-16)
(1 -1.585719563e-16 2.490376799e-16)
(1 -1.465738646e-16 1.867515754e-16)
(1 -2.705596038e-16 1.31852533e-16)
(1 -2.354774949e-16 -5.607593896e-18)
(1 -1.526511611e-16 2.249592603e-16)
(1 4.149082664e-17 -1.884540924e-16)
(1 -2.21583797e-16 -5.464112554e-17)
(1 -1.082910688e-16 -2.117753596e-16)
(1 -5.227164511e-18 -2.646243059e-16)
(1 -1.951559622e-16 2.790331454e-16)
(1 -2.942763082e-16 1.846904413e-16)
(1 -9.148573967e-17 1.491531904e-16)
(1 -1.458805817e-16 1.47457675e-16)
(1 -1.125683635e-16 1.03836327e-16)
(1 -2.196595166e-16 5.104806656e-17)
(1 -2.00309832e-16 -2.16891976e-16)
(1 -3.04869348e-16 -9.135510555e-18)
(1 -1.420108662e-16 -1.521562112e-16)
(1 -1.83607319e-16 -5.693209959e-17)
(1 -8.951669396e-17 -1.603633263e-16)
(1 1.563004994e-16 -1.180610803e-16)
(1 2.944521965e-16 -1.863767095e-16)
(1 1.263097955e-17 3.923151796e-16)
(1 -4.715980623e-17 3.948754947e-16)
(1 -8.492024456e-17 1.381153842e-16)
(1 -1.539187118e-16 2.373580993e-16)
(1 3.251672818e-17 -1.0565013e-16)
(1 -2.543768332e-16 6.105537441e-17)
(1 -1.499123498e-16 -1.079450535e-16)
(1 -4.37010149e-17 -6.699453033e-17)
(1 -4.245404881e-17 1.719198868e-17)
(1 -1.612441439e-16 1.598800002e-17)
(1 -2.037008912e-17 5.635624024e-17)
(1 1.261058089e-16 -1.489503513e-17)