/*--------------------------------*- C++ -*----------------------------------*\
| =========                 |                                                 |
| \\      /  F ield         | OpenFOAM: The Open Source CFD Toolbox           |
|  \\    /   O peration     | Version:  2212                                  |
|   \\  /    A nd           | Website:  www.openfoam.com                      |
|    \\/     M anipulation  |                                                 |
\*---------------------------------------------------------------------------*/
FoamFile
{
    version     2.0;
    format      ascii;
    arch        "LSB;label=32;scalar=64";
    class       volScalarField;
    location    "1.6";
    object      p;
}
// * * * * * * * * * * * * * * * * * * * * * * * * * * * * * * * * * * * * * //

dimensions      [0 2 -2 0 0 0 0];

internalField   nonuniform List<scalar> 
42875
(
3.069002658e-15
2.615307795e-15
3.192375301e-15
2.329190407e-15
2.154548134e-15
3.317270922e-15
2.805958992e-15
3.787674902e-15
2.593945123e-15
2.996258336e-15
3.132396429e-15
3.299491825e-15
2.692204259e-15
3.682910515e-15
3.237267659e-15
2.592995332e-15
3.839687778e-15
3.359368896e-15
3.011424112e-15
2.977065738e-15
2.597646524e-15
3.151379194e-15
3.109285529e-15
3.586140463e-15
2.823274856e-15
2.640475074e-15
4.341756339e-15
3.320604339e-15
3.133556435e-15
2.367276461e-15
4.640903647e-15
3.662068876e-15
3.431505369e-15
2.901561913e-15
2.569130052e-15
2.316242302e-15
2.928948515e-15
2.455591166e-15
3.509394824e-15
3.099813236e-15
2.885799706e-15
4.118275642e-15
3.510913126e-15
2.993478553e-15
2.844263458e-15
3.336008332e-15
3.905708524e-15
3.169047465e-15
2.857929488e-15
1.908903502e-15
4.320419336e-15
3.842433897e-15
3.3620044e-15
3.175120381e-15
2.486183794e-15
2.905946885e-15
2.291565791e-15
2.776124494e-15
2.23541629e-15
3.151824001e-15
3.074965437e-15
2.656723085e-15
3.617550462e-15
3.50944883e-15
3.184981324e-15
3.338765494e-15
3.94525014e-15
3.707213167e-15
3.106511275e-15
2.951422082e-15
2.800236185e-15
4.316426221e-15
3.758040626e-15
4.097033157e-15
2.873680261e-15
2.456490885e-15
1.698930207e-15
3.838144993e-15
4.486656801e-15
3.743858465e-15
2.954829818e-15
2.633568502e-15
1.870023242e-15
2.259736173e-15
2.551279396e-15
2.463052883e-15
2.897629097e-15
2.893215991e-15
3.059405703e-15
2.592818543e-15
3.542943686e-15
2.982356972e-15
3.160674555e-15
2.824242681e-15
4.282373336e-15
3.393334569e-15
3.195813155e-15
3.558093397e-15
3.565657542e-15
4.183365359e-15
3.692382601e-15
3.478249383e-15
2.934326406e-15
3.343882332e-15
2.581116582e-15
4.624791289e-15
3.987453449e-15
3.529025311e-15
3.293535707e-15
2.454509057e-15
2.352010469e-15
1.959366766e-15
4.5049776e-15
4.051810416e-15
4.070420503e-15
2.834716789e-15
3.18912352e-15
1.863391077e-15
1.901037185e-15
2.272454397e-15
3.265466231e-15
2.781957771e-15
3.207031423e-15
3.111088334e-15
3.089436006e-15
3.495639166e-15
3.152069292e-15
3.037337863e-15
2.742606319e-15
2.495810361e-15
3.527204434e-15
3.08299088e-15
3.431741047e-15
3.603895178e-15
3.568935769e-15
3.908007008e-15
3.788405072e-15
3.025060493e-15
3.359290943e-15
3.849699294e-15
3.242405053e-15
4.666083831e-15
3.906228725e-15
3.58489435e-15
3.12845728e-15
3.064324342e-15
3.296225186e-15
2.293457988e-15
4.390623714e-15
3.949258666e-15
3.900769455e-15
3.420926115e-15
3.051799747e-15
2.977393593e-15
2.467647272e-15
1.721521335e-15
4.598619944e-15
4.116295794e-15
3.869545741e-15
3.270457081e-15
2.944464786e-15
2.198777427e-15
1.796708546e-15
2.189837759e-15
2.920004345e-15
3.760149282e-15
3.036781644e-15
3.282317349e-15
3.090861654e-15
3.371328898e-15
3.417753654e-15
2.888904291e-15
3.472896788e-15
3.343983068e-15
3.943715721e-15
3.250224442e-15
3.486414702e-15
3.141588872e-15
2.570698445e-15
3.122689126e-15
3.117870844e-15
3.591000728e-15
3.362214833e-15
3.485394107e-15
3.587588305e-15
3.632798556e-15
4.437187276e-15
3.858452396e-15
3.551218125e-15
3.101539275e-15
3.771692749e-15
3.577540183e-15
3.750701911e-15
4.421275462e-15
4.362588259e-15
3.811811941e-15
3.404810408e-15
3.189598328e-15
3.106155155e-15
2.592814267e-15
2.69501911e-15
4.577899823e-15
4.394692765e-15
3.812002093e-15
4.004654089e-15
3.096164119e-15
3.332675849e-15
2.793936194e-15
2.622810814e-15
2.51983719e-15
4.633081781e-15
3.600410744e-15
4.027782979e-15
3.385866754e-15
3.135901969e-15
2.466002768e-15
2.302155717e-15
2.282856133e-15
1.868627833e-15
2.866384318e-15
4.110351347e-15
3.099414309e-15
2.975764874e-15
2.82168192e-15
3.241585114e-15
2.907028636e-15
3.224405674e-15
3.457744575e-15
3.522883433e-15
3.686814248e-15
3.292892707e-15
3.486858448e-15
3.404632215e-15
3.396813564e-15
3.723353404e-15
3.02328689e-15
3.232134225e-15
3.650098245e-15
3.114050674e-15
2.699226756e-15
3.543453107e-15
3.52470347e-15
3.570998916e-15
3.63187397e-15
3.871186055e-15
3.746877876e-15
3.36635121e-15
3.874604279e-15
4.236618414e-15
4.233835381e-15
3.81055512e-15
3.373553247e-15
3.309521224e-15
3.313532037e-15
3.617012591e-15
3.243788973e-15
4.709683509e-15
4.490013749e-15
4.18920912e-15
3.671297534e-15
3.270376442e-15
3.173391428e-15
2.834082434e-15
2.92916568e-15
2.861046557e-15
4.161432601e-15
4.67038999e-15
4.411794414e-15
3.455351074e-15
3.278119799e-15
2.902793564e-15
2.772843737e-15
2.339509897e-15
3.157611294e-15
2.910585761e-15
4.493619999e-15
4.203294392e-15
3.651682415e-15
4.088549169e-15
3.326513919e-15
2.859565129e-15
2.504496887e-15
2.236669134e-15
2.851399084e-15
2.543051893e-15
3.090909625e-15
3.61158599e-15
4.069819557e-15
4.122193559e-15
3.078892006e-15
3.304007233e-15
3.125541112e-15
3.705086133e-15
3.124969608e-15
3.229547603e-15
3.200095005e-15
3.04138852e-15
3.57106832e-15
3.264032648e-15
3.746565047e-15
3.841368653e-15
3.708716797e-15
3.828422308e-15
3.66561872e-15
3.599137721e-15
3.553330155e-15
3.114722244e-15
3.509029973e-15
3.385959865e-15
3.586559454e-15
3.508420684e-15
2.843730833e-15
3.097302286e-15
3.937739614e-15
3.523954419e-15
3.884921102e-15
3.673151037e-15
3.582625102e-15
3.392624128e-15
2.994035253e-15
3.83548174e-15
3.423568714e-15
4.274412024e-15
4.187277144e-15
4.087546231e-15
3.507578137e-15
3.47810667e-15
2.927532853e-15
3.134411728e-15
3.219988397e-15
3.117529129e-15
4.663195125e-15
4.305941436e-15
4.032575623e-15
3.654153898e-15
3.422610974e-15
3.163850471e-15
2.744190738e-15
2.963623915e-15
3.217119153e-15
3.26058122e-15
4.415858157e-15
4.610583226e-15
4.681624129e-15
3.749824477e-15
3.426457644e-15
3.032682201e-15
2.876178727e-15
2.369613925e-15
2.504844672e-15
3.354800845e-15
3.485624996e-15
4.131559117e-15
3.716618182e-15
4.453513186e-15
3.654825678e-15
3.462816436e-15
3.221252774e-15
2.441512762e-15
2.435620949e-15
2.874009578e-15
2.565048756e-15
3.138592599e-15
3.947583133e-15
2.807428267e-15
3.632590363e-15
3.634521012e-15
3.447172536e-15
3.495764655e-15
3.880026114e-15
3.559962318e-15
3.35622736e-15
3.119789856e-15
3.341633297e-15
3.419092072e-15
3.52948885e-15
3.346011154e-15
3.325662079e-15
3.06755772e-15
3.851457737e-15
3.509606767e-15
3.620487491e-15
3.449730919e-15
3.893759004e-15
3.676422837e-15
4.004473418e-15
3.500618764e-15
3.611317679e-15
3.652594259e-15
3.554315711e-15
3.831781444e-15
3.74001677e-15
3.479347556e-15
4.16676644e-15
3.420495635e-15
3.592718068e-15
3.237695189e-15
3.413240868e-15
3.718753813e-15
3.909673154e-15
4.183335825e-15
3.839868385e-15
3.753034546e-15
3.658035016e-15
3.64948966e-15
3.300854493e-15
3.627752459e-15
3.603001599e-15
3.623322117e-15
4.574087877e-15
4.25222534e-15
3.943246524e-15
3.867309288e-15
3.459761019e-15
2.908855656e-15
3.222417475e-15
3.273674701e-15
3.162514899e-15
3.029294608e-15
4.253899801e-15
4.013738619e-15
4.169621921e-15
3.662054676e-15
3.696948249e-15
3.512567184e-15
2.986430591e-15
2.889612422e-15
2.859306232e-15
3.247508558e-15
3.62301545e-15
4.81436293e-15
4.298824308e-15
3.931410827e-15
3.782847324e-15
3.555237456e-15
3.144917028e-15
3.237673307e-15
2.747571907e-15
2.763793166e-15
2.783663932e-15
3.244188022e-15
3.622085585e-15
4.724500156e-15
3.565875106e-15
4.180353101e-15
4.139695041e-15
3.692279254e-15
2.651249425e-15
3.042949645e-15
2.723259475e-15
3.046530808e-15
3.471953186e-15
3.337127472e-15
3.477523749e-15
4.523946737e-15
3.045362981e-15
2.94590723e-15
3.27146182e-15
3.327202531e-15
3.794034033e-15
4.023168009e-15
2.821905764e-15
3.150060734e-15
3.31913523e-15
3.316963579e-15
3.503425652e-15
3.520567865e-15
3.044970041e-15
3.206793891e-15
2.987587086e-15
3.670032504e-15
3.664443374e-15
3.654922008e-15
3.577397399e-15
3.601234734e-15
3.945287829e-15
3.378412778e-15
3.942947558e-15
3.689470081e-15
3.718765422e-15
3.781375524e-15
3.917353349e-15
3.804289404e-15
3.918659456e-15
3.866563681e-15
3.816960363e-15
3.778490648e-15
3.732713258e-15
4.064764748e-15
3.663434533e-15
4.095606364e-15
4.200479387e-15
3.941313133e-15
4.024752845e-15
3.464831259e-15
3.657210163e-15
3.73180887e-15
3.877440695e-15
4.263653264e-15
4.259328194e-15
3.539782048e-15
4.717855324e-15
3.972135447e-15
4.139594457e-15
3.920442299e-15
3.70851867e-15
3.711122886e-15
3.990697722e-15
4.177826507e-15
3.204247456e-15
4.650999468e-15
4.086006125e-15
4.285978331e-15
3.721393975e-15
3.971722331e-15
3.935208488e-15
3.430532584e-15
3.30239187e-15
3.266646908e-15
3.175731092e-15
3.192105819e-15
4.332367561e-15
3.976238782e-15
3.693262202e-15
3.932797514e-15
4.047704035e-15
3.181279199e-15
3.273009601e-15
3.091356469e-15
3.014312362e-15
3.2942358e-15
3.69938099e-15
3.600498157e-15
4.563263532e-15
4.960313364e-15
3.611880236e-15
3.625489683e-15
3.33652873e-15
3.664757997e-15
2.983490743e-15
3.087462428e-15
2.783268909e-15
2.897561795e-15
2.895216495e-15
3.248234161e-15
3.583058762e-15
4.133198616e-15
3.917265081e-15
4.342127269e-15
3.697897142e-15
3.105598488e-15
2.740044703e-15
3.408439701e-15
3.160212265e-15
3.571770387e-15
3.56869815e-15
3.293458957e-15
3.713245587e-15
3.339321509e-15
3.998731543e-15
3.07415255e-15
3.08880563e-15
3.50790106e-15
3.337885299e-15
3.409316307e-15
3.416064381e-15
3.567616354e-15
3.317014578e-15
3.935554122e-15
3.996326986e-15
3.168578561e-15
3.089471254e-15
3.273684684e-15
3.250179756e-15
3.53707437e-15
3.425812635e-15
3.506574657e-15
3.433953404e-15
3.263088425e-15
3.21703895e-15
3.766005357e-15
3.566708006e-15
3.991244835e-15
3.404201423e-15
3.828060109e-15
3.742675456e-15
3.734407289e-15
3.830364444e-15
3.924617202e-15
3.467587007e-15
3.872776771e-15
3.973198189e-15
4.231927198e-15
3.851804471e-15
3.931417787e-15
4.119209666e-15
4.263926511e-15
3.665973765e-15
3.971448462e-15
4.327061821e-15
3.835255667e-15
4.111768332e-15
3.966273307e-15
3.858030284e-15
4.125411327e-15
4.072424866e-15
4.431360565e-15
4.165289856e-15
4.543659376e-15
3.631716181e-15
3.974243007e-15
4.160933152e-15
3.914654521e-15
4.522484531e-15
4.295759996e-15
4.487978327e-15
4.28193318e-15
4.161073855e-15
4.294757589e-15
4.080046533e-15
3.82478333e-15
3.828957436e-15
4.076387297e-15
4.320842325e-15
4.326414703e-15
3.581838313e-15
4.684284243e-15
4.271087347e-15
4.167780747e-15
4.051002392e-15
3.981780929e-15
4.186623772e-15
3.619942838e-15
3.630350558e-15
3.291975649e-15
3.658252637e-15
3.680188036e-15
3.619845595e-15
4.498688907e-15
3.95676986e-15
3.970639827e-15
3.46640926e-15
3.822495165e-15
3.861376713e-15
3.365283384e-15
3.388245188e-15
3.106911476e-15
3.008573374e-15
3.502572615e-15
3.64853419e-15
3.393796696e-15
4.316226921e-15
4.631604922e-15
4.072750145e-15
3.60504645e-15
3.830414176e-15
3.528870457e-15
3.703147288e-15
3.026239121e-15
3.090820444e-15
2.768584133e-15
3.081104838e-15
3.132246457e-15
3.671661278e-15
3.376681851e-15
4.507011113e-15
4.059856834e-15
3.681648058e-15
4.048191541e-15
3.597725464e-15
3.50972906e-15
3.559771596e-15
3.003002623e-15
2.924698396e-15
3.912299883e-15
3.565022535e-15
3.012661747e-15
3.445697331e-15
3.736238674e-15
3.283555928e-15
3.411982243e-15
3.583196791e-15
3.091566847e-15
3.515674199e-15
3.073068208e-15
3.036902152e-15
3.57887918e-15
3.618154413e-15
3.498313211e-15
3.816283001e-15
3.230365718e-15
3.32794705e-15
3.438002538e-15
4.049118648e-15
3.535948544e-15
3.550687151e-15
3.373158404e-15
3.038192187e-15
3.366669082e-15
3.553923191e-15
3.658011701e-15
3.456524315e-15
3.469784983e-15
3.502810133e-15
3.025260121e-15
3.198377394e-15
3.491452744e-15
3.635399621e-15
3.509046409e-15
3.762030307e-15
3.613459492e-15
3.448073589e-15
3.721422375e-15
3.934609131e-15
3.603486309e-15
3.918434089e-15
3.944534423e-15
3.780973181e-15
3.73607806e-15
3.978066149e-15
4.15639376e-15
4.105429056e-15
4.486314911e-15
3.992144322e-15
3.961525978e-15
4.188432802e-15
3.894886918e-15
3.719985536e-15
4.458228642e-15
4.070697359e-15
4.253730409e-15
3.984342221e-15
4.054564331e-15
3.834239564e-15
3.767240138e-15
4.637826332e-15
4.432254198e-15
4.438243066e-15
4.677576374e-15
4.305321808e-15
3.987354281e-15
4.15037281e-15
4.423043861e-15
4.241748454e-15
3.837209636e-15
4.249268598e-15
4.42902291e-15
4.905229483e-15
4.349607789e-15
4.425999079e-15
4.35109972e-15
4.397151043e-15
4.184582669e-15
3.96198509e-15
4.350598547e-15
4.447757882e-15
4.055013045e-15
3.262338821e-15
4.588581263e-15
4.394512417e-15
4.481716748e-15
4.15438232e-15
4.368755082e-15
4.11532941e-15
4.099608359e-15
3.80213599e-15
3.399465346e-15
3.702898167e-15
3.696379819e-15
3.927939484e-15
3.764345584e-15
4.363370467e-15
4.291038814e-15
4.175634402e-15
3.806316914e-15
4.178757996e-15
3.721775971e-15
3.294546652e-15
3.001685523e-15
3.289702379e-15
3.26239941e-15
3.373040888e-15
3.655281109e-15
3.845303695e-15
3.903646026e-15
4.545854841e-15
4.219193277e-15
4.257897265e-15
3.85970086e-15
3.925918418e-15
3.621822441e-15
3.331268795e-15
3.415749871e-15
3.33763983e-15
3.223414699e-15
2.986081927e-15
3.352756625e-15
3.277040168e-15
3.584855563e-15
3.745482996e-15
4.942336776e-15
4.406276959e-15
3.622716084e-15
4.429212951e-15
3.912530477e-15
3.345788524e-15
3.653810447e-15
3.584640075e-15
3.607395297e-15
3.107897415e-15
3.929041567e-15
2.968130133e-15
2.816063823e-15
4.083271561e-15
3.674716867e-15
2.7905724e-15
3.159902526e-15
3.656033459e-15
2.787974745e-15
3.318685502e-15
3.50487943e-15
2.794061879e-15
3.64407869e-15
3.394494522e-15
3.037112291e-15
3.364199792e-15
3.380186759e-15
3.5776607e-15
3.33426587e-15
3.660528364e-15
3.610985213e-15
3.803765114e-15
3.69017259e-15
3.484187855e-15
3.375411786e-15
3.915325802e-15
3.665247014e-15
3.781057466e-15
3.210792914e-15
3.345976189e-15
3.299758612e-15
3.782139708e-15
3.838829175e-15
3.118312121e-15
3.232426495e-15
3.882134758e-15
3.479184941e-15
3.332708476e-15
3.197157693e-15
3.361860272e-15
3.611038732e-15
3.839781209e-15
3.217118423e-15
3.68992464e-15
3.648446705e-15
3.427499597e-15
3.712210523e-15
4.005882137e-15
3.889762032e-15
4.205016813e-15
3.464478661e-15
3.887586155e-15
4.045077589e-15
3.244280967e-15
3.404407336e-15
3.84868037e-15
4.127525944e-15
4.152106837e-15
4.341377217e-15
4.444061373e-15
4.304325751e-15
4.58865225e-15
3.770409744e-15
4.133493716e-15
4.582512088e-15
4.385135351e-15
4.168701404e-15
4.097521706e-15
3.978928602e-15
4.067578825e-15
3.951665241e-15
4.332719135e-15
3.606114266e-15
4.720342696e-15
4.581911526e-15
4.592121004e-15
4.395021158e-15
4.240390072e-15
4.410462203e-15
4.452902427e-15
4.436483004e-15
4.04583897e-15
4.326450991e-15
3.947090482e-15
5.00882637e-15
4.812999151e-15
4.491136369e-15
4.483553666e-15
4.556376489e-15
4.504819664e-15
4.468658591e-15
4.06778663e-15
4.398800757e-15
4.463866773e-15
4.305049723e-15
3.783178516e-15
3.503842443e-15
4.388941279e-15
4.428566986e-15
4.258461513e-15
4.632891109e-15
4.481760005e-15
4.495154092e-15
3.943535978e-15
3.655228842e-15
3.517658161e-15
3.918313244e-15
3.824021883e-15
3.925946579e-15
4.101896333e-15
4.125508513e-15
4.760422539e-15
4.300541135e-15
4.767505255e-15
4.042192217e-15
3.888066642e-15
3.735712703e-15
3.350043977e-15
3.587946219e-15
3.478911418e-15
3.501320329e-15
3.556329371e-15
3.728599277e-15
3.861045077e-15
3.6537324e-15
3.927844646e-15
4.372767157e-15
3.953529128e-15
4.088721462e-15
3.972488244e-15
3.928623221e-15
3.650319486e-15
3.780037961e-15
2.965116944e-15
3.415922301e-15
3.341476915e-15
3.200561067e-15
2.994675095e-15
3.391547411e-15
3.072012892e-15
3.550825267e-15
4.005306977e-15
5.071911435e-15
4.743180505e-15
3.687491052e-15
3.675866887e-15
3.525286728e-15
4.462779705e-15
3.670107759e-15
3.749060713e-15
3.566657695e-15
4.045939667e-15
3.476983341e-15
3.329771527e-15
3.019719528e-15
3.371673745e-15
3.549660331e-15
3.173413913e-15
2.848713707e-15
3.129783562e-15
3.140152571e-15
2.97051981e-15
3.249961288e-15
3.162993659e-15
2.97985254e-15
3.37510984e-15
3.276478626e-15
3.002492777e-15
3.091399238e-15
3.792356714e-15
3.482341077e-15
3.497316913e-15
3.124629142e-15
3.428061676e-15
3.730355524e-15
3.533307975e-15
3.804948438e-15
3.307246182e-15
3.583146651e-15
3.834811507e-15
4.093889376e-15
3.67557155e-15
3.021624643e-15
3.609721083e-15
3.866961536e-15
3.61513322e-15
3.661557306e-15
3.818900074e-15
3.264882926e-15
3.653652425e-15
3.38628062e-15
3.469842051e-15
3.589166434e-15
3.337696202e-15
3.472274338e-15
3.730517547e-15
3.91643553e-15
3.762849266e-15
3.641034582e-15
3.488082354e-15
2.88921039e-15
3.325590671e-15
4.100531702e-15
3.900310757e-15
3.301482483e-15
3.91518333e-15
3.647891429e-15
3.502506597e-15
3.712047362e-15
3.935556864e-15
3.794938397e-15
4.130908219e-15
3.845188487e-15
3.989720594e-15
3.995235848e-15
3.591072601e-15
3.959077147e-15
3.608588965e-15
3.727801914e-15
3.911607324e-15
4.230672128e-15
4.590415146e-15
4.510371438e-15
4.536167203e-15
4.188155061e-15
4.283992328e-15
4.240402357e-15
4.047386763e-15
4.558368329e-15
4.273332458e-15
4.631760735e-15
4.35506795e-15
4.165929389e-15
4.242548866e-15
4.353461327e-15
4.404343765e-15
4.586178419e-15
4.055427683e-15
4.195912543e-15
4.618044318e-15
4.582741173e-15
4.470368761e-15
4.341774998e-15
4.613778474e-15
4.514907904e-15
4.20427567e-15
4.117590592e-15
4.076161919e-15
4.380589171e-15
3.956207844e-15
4.602370758e-15
5.006385097e-15
4.74216346e-15
4.67015532e-15
4.397891639e-15
4.456582583e-15
4.442556047e-15
4.637764962e-15
4.378924495e-15
4.579020889e-15
4.18631333e-15
4.207864964e-15
4.040249451e-15
3.437092779e-15
4.303711352e-15
4.220991511e-15
4.347744303e-15
4.323962347e-15
4.655948944e-15
4.105877781e-15
4.340409038e-15
3.896537595e-15
3.913561409e-15
3.739906641e-15
3.795235714e-15
4.101944262e-15
4.09926017e-15
3.970412419e-15
3.816097067e-15
4.488326295e-15
4.25858684e-15
4.393698984e-15
4.261773081e-15
3.868018104e-15
3.978863441e-15
3.651942654e-15
3.31492348e-15
3.597970044e-15
3.595735075e-15
3.495143324e-15
3.730363982e-15
3.842804134e-15
3.657772405e-15
3.71289757e-15
4.138459311e-15
4.642426295e-15
4.058824007e-15
3.860107159e-15
4.20972415e-15
3.877597358e-15
3.853778391e-15
3.887020094e-15
3.174167284e-15
3.425162956e-15
3.170494036e-15
3.684473107e-15
3.336561523e-15
3.51436865e-15
3.336074282e-15
3.446356815e-15
3.808411105e-15
3.746910687e-15
4.595449258e-15
3.954623969e-15
4.192616872e-15
3.436540855e-15
3.760960048e-15
3.807721075e-15
4.151911268e-15
3.311416084e-15
3.941557209e-15
3.274915667e-15
3.827551792e-15
2.83538569e-15
3.579717792e-15
3.300243492e-15
3.322809941e-15
3.221424899e-15
2.371241438e-15
2.482400954e-15
2.724883953e-15
2.980712442e-15
3.077627377e-15
2.856093407e-15
2.841206706e-15
2.897197413e-15
2.932334529e-15
3.029985093e-15
2.957274499e-15
2.974901491e-15
3.442790119e-15
3.306458326e-15
3.187445104e-15
2.920522569e-15
2.636612957e-15
3.622948779e-15
3.352759534e-15
3.326904212e-15
3.261959811e-15
3.184075003e-15
3.418688146e-15
3.350348186e-15
3.393985684e-15
3.277693454e-15
3.569586812e-15
3.16318087e-15
3.608065851e-15
4.075896047e-15
4.148915432e-15
3.754030565e-15
3.658309617e-15
3.340284944e-15
3.820286383e-15
3.632329253e-15
3.397133539e-15
3.587270747e-15
4.180614867e-15
3.659455689e-15
3.713145395e-15
3.593643808e-15
3.431662184e-15
3.140995435e-15
3.024731296e-15
3.315520984e-15
3.729872178e-15
3.694567649e-15
3.655859118e-15
4.023600152e-15
3.839975015e-15
3.493853335e-15
3.549388291e-15
3.340762481e-15
3.845094651e-15
3.798100747e-15
3.990676599e-15
3.029203093e-15
3.70196773e-15
3.594721299e-15
3.321790274e-15
3.421634159e-15
3.96614703e-15
3.893263179e-15
4.053782403e-15
4.169111188e-15
3.786285602e-15
4.009173952e-15
4.210416039e-15
3.830775273e-15
4.122550766e-15
4.332095231e-15
3.783527978e-15
4.029021135e-15
4.087936776e-15
4.129829681e-15
4.514254207e-15
4.253791727e-15
4.278208672e-15
4.204811882e-15
3.726232869e-15
3.725947756e-15
4.30927847e-15
4.467186335e-15
4.300424348e-15
4.586803794e-15
4.853808318e-15
4.559449971e-15
4.500694272e-15
4.422982033e-15
4.144699139e-15
4.479445819e-15
4.490411259e-15
4.037360183e-15
4.210039376e-15
4.464121979e-15
4.843394566e-15
4.57434224e-15
4.599942593e-15
4.492829663e-15
5.005997246e-15
4.62705283e-15
4.548282924e-15
4.315452416e-15
4.24327542e-15
3.945696651e-15
3.309281085e-15
4.147660688e-15
4.578468439e-15
4.905554922e-15
4.611499507e-15
4.576648626e-15
4.300189294e-15
4.370353251e-15
4.434027543e-15
4.59071688e-15
4.227782777e-15
4.493873066e-15
4.194939467e-15
4.475805937e-15
4.144131611e-15
3.701565405e-15
4.29406646e-15
4.569985792e-15
4.584903338e-15
4.140521662e-15
4.549003133e-15
4.246261023e-15
3.914451533e-15
4.112318652e-15
4.098453977e-15
3.879361666e-15
3.732768213e-15
4.453377625e-15
4.230958884e-15
4.024845706e-15
3.692251141e-15
3.418836223e-15
4.444823702e-15
4.44029708e-15
4.371619123e-15
3.950460867e-15
4.475949305e-15
3.750717125e-15
3.737689905e-15
3.609734444e-15
3.842107076e-15
3.407129001e-15
3.647693143e-15
3.820526476e-15
3.630354032e-15
3.880739642e-15
3.701523638e-15
3.950597549e-15
3.452629508e-15
4.006334467e-15
4.461942476e-15
4.071898089e-15
4.244776956e-15
3.638656001e-15
3.971480336e-15
3.809417092e-15
3.610559569e-15
3.470261716e-15
4.024862215e-15
3.638407184e-15
3.523829036e-15
3.37366945e-15
3.238975258e-15
3.352783133e-15
3.391139085e-15
3.87547302e-15
3.650730416e-15
4.255467606e-15
3.972529116e-15
3.681723282e-15
3.697843999e-15
4.03707378e-15
3.928247613e-15
3.150363026e-15
3.505269106e-15
3.102541341e-15
3.657995167e-15
4.320904112e-15
3.656036773e-15
3.432255704e-15
3.662456374e-15
3.208556857e-15
3.13129159e-15
2.861155063e-15
2.335896831e-15
2.166178305e-15
1.986459492e-15
2.660104625e-15
2.444784691e-15
3.147933864e-15
3.033685513e-15
2.746922832e-15
2.926472079e-15
3.174143492e-15
3.011968645e-15
2.503874712e-15
3.389182134e-15
3.280243905e-15
2.820994369e-15
2.790017121e-15
2.821555648e-15
3.509101239e-15
3.238604086e-15
2.935632433e-15
3.344789274e-15
3.116822734e-15
3.217521373e-15
3.362070348e-15
3.422885276e-15
3.607587835e-15
3.491611283e-15
2.930330054e-15
3.323612464e-15
3.636212082e-15
3.701784074e-15
3.406320381e-15
3.281292623e-15
3.746429088e-15
3.202361001e-15
3.325037289e-15
3.976897909e-15
3.882328232e-15
3.466911882e-15
3.648071704e-15
3.932410329e-15
3.834480106e-15
3.515418076e-15
3.3716131e-15
3.496692708e-15
3.600943153e-15
3.95016412e-15
4.209715418e-15
4.048635569e-15
3.883115933e-15
3.730676428e-15
3.663296032e-15
3.285353059e-15
3.104454349e-15
3.451925025e-15
3.877023946e-15
3.619925523e-15
3.041777719e-15
3.947527644e-15
3.347389379e-15
3.651786784e-15
3.838443587e-15
3.498151286e-15
3.492977665e-15
3.512545251e-15
3.658283279e-15
4.083086107e-15
3.97062012e-15
4.143245537e-15
3.529672725e-15
3.840191163e-15
4.03932355e-15
3.761435772e-15
3.630431583e-15
4.18726578e-15
3.90470279e-15
4.258830613e-15
4.150342395e-15
3.765090375e-15
4.065791834e-15
3.485234894e-15
4.277274327e-15
3.784057232e-15
4.383564399e-15
4.231248341e-15
4.196196043e-15
4.164953634e-15
4.238039546e-15
4.746889675e-15
4.596156121e-15
4.227350912e-15
4.514326412e-15
4.239498412e-15
3.816669159e-15
3.90398564e-15
3.782718419e-15
4.016965735e-15
4.592203919e-15
4.62016799e-15
4.502107389e-15
4.931463785e-15
4.799444558e-15
4.526568895e-15
4.517319818e-15
4.283864589e-15
4.275039296e-15
3.812433051e-15
4.197564967e-15
4.335783479e-15
4.173822922e-15
4.379919471e-15
4.904869755e-15
4.582809818e-15
4.483231338e-15
4.779654806e-15
4.853360207e-15
4.766159435e-15
4.564112019e-15
4.319982274e-15
4.404730871e-15
3.573847097e-15
3.365767528e-15
4.074877389e-15
4.541112547e-15
4.885799613e-15
4.591848334e-15
4.630358021e-15
4.456123953e-15
4.257397633e-15
4.571706125e-15
4.57074098e-15
4.502808484e-15
4.510760549e-15
4.172715207e-15
4.573439086e-15
4.016488902e-15
4.03274221e-15
3.253631933e-15
3.864978416e-15
4.271549196e-15
4.545754767e-15
4.3143417e-15
4.411671674e-15
4.307777506e-15
4.214993008e-15
4.043784898e-15
4.083898842e-15
4.002429327e-15
3.848305887e-15
4.323624993e-15
4.04019466e-15
4.353325391e-15
3.697485378e-15
3.404650515e-15
3.483647612e-15
4.271566535e-15
4.092794218e-15
4.274324148e-15
4.095257167e-15
4.024286231e-15
4.092618181e-15
3.59519948e-15
3.83824814e-15
3.498198027e-15
3.80020554e-15
3.559202847e-15
3.936162056e-15
3.650295265e-15
3.665888312e-15
3.720886435e-15
3.682582615e-15
3.649553068e-15
3.962500909e-15
3.716466294e-15
3.707714518e-15
3.707576429e-15
4.294238458e-15
4.05205951e-15
3.8033445e-15
3.765822929e-15
3.775199787e-15
3.820044445e-15
3.435592789e-15
3.62821353e-15
3.717217101e-15
3.475779304e-15
3.378519524e-15
3.196054282e-15
3.643313494e-15
3.517868876e-15
3.807166868e-15
3.789314563e-15
3.895086331e-15
3.739462702e-15
3.864441493e-15
3.770561075e-15
3.874913707e-15
3.979578114e-15
3.208697615e-15
2.978534282e-15
3.308546987e-15
3.291736122e-15
4.346776473e-15
3.285121387e-15
3.533464049e-15
2.655536053e-15
3.236486014e-15
2.987222039e-15
2.480291706e-15
2.713158733e-15
2.46366544e-15
3.152188504e-15
1.37179308e-15
2.471659981e-15
2.066502178e-15
2.80400381e-15
2.724728751e-15
2.496676923e-15
3.417386139e-15
3.188140372e-15
2.871199065e-15
2.665086081e-15
2.878733407e-15
2.997827496e-15
2.94511783e-15
2.505169341e-15
2.982649007e-15
3.455909331e-15
3.381369642e-15
3.099107169e-15
3.175635609e-15
2.758613827e-15
2.902912085e-15
3.54716327e-15
3.457807246e-15
3.664032494e-15
3.568966765e-15
3.241408534e-15
3.184043467e-15
2.515032079e-15
3.933102595e-15
3.414249869e-15
3.526585693e-15
3.756119773e-15
3.571641102e-15
3.309432945e-15
3.606083769e-15
3.304817935e-15
3.141176339e-15
3.641365292e-15
3.211496494e-15
3.511625419e-15
3.671433241e-15
3.502820621e-15
3.739912172e-15
3.939556971e-15
3.464049164e-15
3.836770152e-15
3.671035105e-15
3.899550521e-15
3.7346231e-15
3.531411576e-15
3.440784018e-15
3.403727909e-15
3.825924045e-15
3.770408725e-15
3.94942799e-15
3.589065897e-15
3.712589655e-15
4.112571167e-15
3.91952743e-15
3.85679015e-15
3.454981241e-15
3.41334876e-15
3.81089083e-15
3.809689796e-15
3.873700947e-15
3.910483178e-15
3.732020058e-15
3.804905746e-15
3.485724722e-15
3.78242656e-15
3.812136557e-15
3.811559731e-15
3.579456205e-15
3.627826706e-15
3.901563708e-15
3.959351692e-15
3.827009251e-15
4.183939089e-15
3.8378376e-15
3.85269788e-15
3.461689981e-15
3.949176302e-15
4.13283751e-15
4.167546912e-15
3.680685342e-15
4.081997476e-15
4.179284165e-15
4.218497896e-15
4.179823471e-15
3.906662104e-15
3.918461819e-15
3.292016917e-15
3.642404509e-15
3.933083996e-15
4.267183979e-15
4.441206336e-15
4.494200084e-15
4.723364374e-15
4.639440789e-15
4.654435504e-15
4.280285859e-15
4.75201291e-15
4.131481234e-15
4.370994283e-15
3.817272828e-15
3.545482803e-15
3.787001401e-15
4.184614233e-15
4.192413214e-15
4.428603712e-15
4.953570776e-15
4.656955557e-15
4.875732707e-15
4.967227455e-15
4.939233126e-15
4.267181089e-15
4.552725929e-15
4.245567661e-15
4.126903233e-15
3.403136084e-15
3.889382685e-15
4.084695886e-15
4.393941115e-15
4.630159172e-15
4.917353145e-15
4.987737433e-15
4.725268644e-15
4.588985947e-15
4.27900613e-15
4.948226064e-15
4.760144822e-15
4.597674032e-15
4.387059335e-15
4.092480205e-15
3.733153386e-15
3.446848566e-15
4.03957326e-15
4.012188492e-15
4.573600735e-15
4.806305402e-15
4.638666809e-15
4.39593337e-15
4.371354576e-15
4.462151231e-15
4.714272396e-15
4.407174157e-15
4.458529923e-15
4.382555132e-15
4.480248907e-15
4.21516395e-15
3.901430497e-15
3.531846356e-15
3.004982752e-15
3.778598743e-15
4.050100367e-15
4.282853072e-15
4.34353092e-15
4.452980451e-15
4.2705639e-15
4.209733605e-15
4.367166156e-15
4.00549518e-15
3.822896221e-15
3.926991191e-15
4.471319048e-15
4.418322681e-15
4.304439907e-15
4.044173982e-15
3.498227495e-15
3.174275983e-15
3.784622101e-15
3.942817444e-15
3.789058199e-15
4.140343801e-15
3.972529161e-15
3.776624137e-15
3.879213734e-15
4.054150575e-15
3.823085332e-15
3.754952697e-15
3.96377828e-15
3.474855334e-15
3.810536065e-15
3.922444995e-15
3.659224738e-15
3.621941788e-15
3.760075439e-15
3.419355979e-15
3.842810345e-15
3.699387083e-15
3.483209557e-15
3.652385548e-15
3.661878638e-15
3.952939049e-15
3.979495477e-15
3.811904377e-15
3.413072675e-15
3.798133086e-15
3.817848486e-15
3.588435272e-15
3.848672236e-15
3.749289415e-15
3.778094714e-15
3.755572892e-15
3.587479361e-15
3.673300588e-15
3.243896466e-15
3.258890309e-15
3.4011553e-15
3.440867003e-15
3.384248944e-15
3.381672785e-15
3.43410734e-15
3.491244634e-15
4.028557781e-15
3.631312083e-15
3.408532797e-15
3.223988227e-15
3.37523446e-15
3.821727745e-15
3.368445714e-15
3.295393929e-15
3.565265867e-15
3.234998707e-15
3.514498871e-15
3.289755361e-15
2.712610845e-15
2.612973038e-15
2.49539074e-15
2.99922561e-15
2.925786392e-15
1.99489299e-15
2.169049824e-15
2.336181537e-15
2.553097542e-15
2.5231856e-15
1.967636206e-15
2.837957772e-15
2.660612632e-15
2.832796988e-15
2.655533071e-15
2.866826119e-15
3.306917769e-15
3.062994374e-15
3.233903957e-15
3.117572648e-15
3.122568271e-15
2.879698035e-15
3.279657005e-15
2.724342709e-15
2.549444534e-15
2.825794294e-15
3.379491968e-15
3.505928731e-15
3.263740253e-15
3.214686352e-15
3.421910696e-15
2.754848591e-15
2.493264121e-15
3.58380034e-15
3.396473673e-15
3.795831281e-15
3.787227374e-15
3.557066415e-15
3.442016631e-15
3.002127599e-15
2.821524354e-15
3.055656029e-15
3.505766377e-15
3.23909839e-15
3.449513155e-15
4.191259288e-15
3.717324537e-15
3.776009083e-15
3.534498704e-15
3.095856027e-15
3.372274206e-15
3.306915464e-15
3.84961392e-15
3.804626834e-15
3.588451334e-15
3.787992125e-15
4.090561578e-15
3.97850313e-15
3.51600079e-15
3.505591217e-15
3.570331476e-15
3.646133282e-15
3.618716139e-15
3.47116957e-15