/*--------------------------------*- C++ -*----------------------------------*\
| =========                 |                                                 |
| \\      /  F ield         | OpenFOAM: The Open Source CFD Toolbox           |
|  \\    /   O peration     | Version:  2212                                  |
|   \\  /    A nd           | Website:  www.openfoam.com                      |
|    \\/     M anipulation  |                                                 |
\*---------------------------------------------------------------------------*/
FoamFile
{
    version     2.0;
    format      ascii;
    arch        "LSB;label=32;scalar=64";
    class       surfaceScalarField;
    location    "1.6";
    object      phi;
}
// * * * * * * * * * * * * * * * * * * * * * * * * * * * * * * * * * * * * * //

dimensions      [0 3 -1 0 0 0 0];

oriented        oriented;

internalField   nonuniform List<scalar> 
124950
(
0.0025
-2.753415435e-19
6.12300088e-19
0.0025
-1.470432244e-18
3.038079024e-19
0.0025
-3.262642343e-19
5.755782769e-19
0.0025
-5.655523789e-19
-4.021582636e-19
0.0025
-2.320151043e-18
-1.883508472e-20
0.0025
-1.160167306e-18
6.495118045e-19
0.0025
-1.231255969e-18
-1.19192905e-19
0.0025
-2.455023523e-19
5.174052139e-19
0.0025
-4.279316216e-19
1.188902583e-19
0.0025
1.498673154e-20
-1.75521929e-19
0.0025
-1.565784318e-18
3.236131172e-19
0.0025
-1.770430486e-18
7.758340797e-19
0.0025
-1.370163928e-18
-1.621580865e-19
0.0025
-9.799279431e-19
8.793361341e-19
0.0025
-8.938366135e-19
3.261043228e-19
0.0025
-8.575721898e-19
-2.211075074e-19
0.0025
-8.043255046e-19
5.95869478e-19
0.0025
-2.095561483e-19
1.698594985e-19
0.0025
-1.347818641e-19
2.13784506e-19
0.0025
1.083740304e-19
-7.788419919e-20
0.0025
-7.050699547e-19
6.59073414e-19
0.0025
-1.589883377e-18
5.403656472e-19
0.0025
-1.155797542e-18
2.646502742e-19
0.0025
-1.252754849e-18
8.145183691e-19
0.0025
-1.680904148e-18
-6.944768192e-20
0.0025
-1.469410048e-18
-4.741901277e-19
0.0025
-3.345705723e-19
9.207177339e-19
0.0025
-9.915010879e-19
3.293699572e-19
0.0025
-5.82256055e-19
2.998942619e-19
0.0025
-8.590255403e-19
-1.434529634e-19
0.0025
9.532034229e-20
1.071819842e-18
0.0025
-5.026256918e-19
4.197525729e-19
0.0025
-2.179667634e-20
3.701073216e-19
0.0025
-1.285304771e-19
3.748148982e-19
0.0025
4.069019569e-19
-3.055321918e-19
0.0025
-5.974435375e-19
3.550775994e-19
0.0025
-7.250938484e-19
3.885913187e-19
0.0025
-1.048188237e-18
4.749375545e-19
0.0025
-1.049753687e-18
6.145996571e-19
0.0025
-1.461251346e-18
6.334315386e-20
0.0025
-1.506977338e-18
-3.492035666e-19
0.0025
-8.810468416e-19
8.784018853e-19
0.0025
-1.222253092e-18
4.643369905e-19
0.0025
-1.205194909e-18
-1.735103333e-19
0.0025
-1.108564734e-18
-4.223626286e-19
0.0025
-8.465325112e-19
6.176412671e-19
0.0025
-7.39589734e-19
5.019202974e-19
0.0025
-7.341378094e-19
4.275974056e-19
0.0025
-4.449897887e-19
4.129964097e-19
0.0025
-1.830118994e-19
-2.429261201e-19
0.0025
4.908242742e-19
4.305834878e-19
0.0025
-4.575652421e-19
6.867877232e-19
0.0025
-4.605775215e-19
2.41753846e-19
0.0025
1.464587947e-19
6.177202781e-19
0.0025
1.031586169e-19
4.444794102e-19
0.0025
1.153350762e-18
4.673781779e-19
0.0025
-1.236795028e-18
-1.488835246e-18
0.0025
-4.318393165e-19
1.338628695e-19
0.0025
-1.171225516e-18
1.752402795e-19
0.0025
-1.202833592e-18
1.457033114e-19
0.0025
-8.734175291e-19
1.339457707e-19
0.0025
-1.372307586e-18
2.277870235e-19
0.0025
-1.238247657e-18
6.938100777e-19
0.0025
-8.967120209e-19
5.1948004e-19
0.0025
-1.158168469e-18
-3.852479314e-19
0.0025
-1.17873045e-18
-4.610578833e-19
0.0025
-1.000279855e-18
8.284390499e-19
0.0025
-9.872008981e-19
5.940389067e-19
0.0025
-9.222449225e-19
2.336254457e-19
0.0025
-8.122813461e-19
-3.081631176e-19
0.0025
-8.722367512e-19
-3.002152386e-19
0.0025
-1.96414468e-19
8.645812355e-19
0.0025
-4.761753654e-19
8.062191185e-19
0.0025
-3.302970701e-19
6.348091967e-19
0.0025
-4.154379033e-19
6.738872096e-19
0.0025
-2.109392196e-19
8.753502956e-20
0.0025
-1.736316748e-19
-1.736910452e-19
0.0025
-2.722180185e-19
2.009936736e-19
0.0025
2.99709029e-19
7.294067157e-19
0.0025
-3.152779173e-19
8.027341476e-19
0.0025
1.122263252e-19
1.32606453e-19
0.0025
-3.936671342e-19
4.655203323e-19
0.0025
3.72211488e-19
-1.033516682e-19
0.0025
3.899119924e-19
1.169695195e-20
0.0025
-2.046742542e-18
-2.812959326e-18
0.0025
-1.235681028e-18
-5.571768099e-19
0.0025
-6.390962086e-19
-9.037562629e-19
0.0025
-1.318034268e-18
-7.37677316e-19
0.0025
-6.755942416e-19
2.461627736e-19
0.0025
-9.95045587e-19
3.435528312e-19
0.0025
-9.040962878e-19
6.582789133e-19
0.0025
-1.085512574e-18
-3.085565436e-19
0.0025
-1.074805588e-18
-1.897550085e-19
0.0025
-1.683193706e-18
-4.54294674e-19
0.0025
-8.459244351e-19
9.236442304e-19
0.0025
-1.040678543e-18
7.459195312e-19
0.0025
-7.363153576e-19
5.021937965e-20
0.0025
-7.154808311e-19
-6.172561056e-19
0.0025
-1.331295343e-18
-3.346294021e-19
0.0025
-6.612503396e-19
8.458726394e-19
0.0025
-8.19399243e-19
5.591579875e-19
0.0025
-8.684297644e-19
4.439397686e-19
0.0025
-6.850730075e-19
4.097900442e-20
0.0025
-4.363874787e-19
-9.559266644e-20
0.0025
-9.794296223e-19
-1.948136263e-19
0.0025
8.891285748e-20
1.239478914e-18
0.0025
-8.354547352e-20
7.257446775e-19
0.0025
-5.207412337e-19
5.174044197e-19
0.0025
-4.169109817e-19
3.688301539e-19
0.0025
-7.900049355e-19
-2.326184685e-20
0.0025
-1.858250929e-19
-2.828575336e-19
0.0025
-1.10016449e-19
-1.214498371e-19
0.0025
-4.642141503e-20
5.403532149e-19
0.0025
4.936277131e-20
2.276441763e-19
0.0025
1.764750804e-19
7.525894389e-19
0.0025
-3.085551729e-19
1.158543559e-19
0.0025
-1.216803543e-19
6.056463926e-19
0.0025
-2.517871725e-19
-1.823970257e-19
0.0025
4.031068193e-20
-1.996383003e-19
0.0025
1.575632068e-19
-4.482270107e-19
0.0025
-1.937168243e-18
-2.498895992e-18
0.0025
-1.960386768e-18
-1.501044904e-18
0.0025
-6.606368821e-19
-1.683059291e-18
0.0025
-1.403798565e-18
-1.152377132e-18
0.0025
-7.343753214e-19
-3.623088505e-19
0.0025
-6.578317513e-19
-2.836165454e-19
0.0025
-1.088188886e-18
2.042204505e-19
0.0025
-1.062115193e-18
-5.684807489e-19
0.0025
-1.029703875e-18
2.070682768e-19
0.0025
-1.330876557e-18
-4.563446466e-19
0.0025
-6.477476925e-19
3.347922725e-19
0.0025
-1.184156066e-18
3.164269624e-19
0.0025
-7.184910594e-19
-2.179610967e-19
0.0025
-1.053167526e-18
-3.09795041e-19
0.0025
-1.427971428e-18
-8.124720601e-19
0.0025
-8.98627315e-19
6.15846128e-19
0.0025
-9.776494571e-19
4.660466636e-19
0.0025
-1.126638355e-18
3.617485187e-19
0.0025
-5.512801876e-19
-4.223626768e-19
0.0025
-7.101248382e-19
-2.657430966e-19
0.0025
-1.352701007e-18
-6.990721989e-19
0.0025
-3.506800781e-21
1.175160017e-18
0.0025
-5.780599828e-19
6.173738296e-19
0.0025
-8.150912688e-19
3.456387815e-19
0.0025
-9.007032024e-19
1.518353081e-19
0.0025
-6.891049757e-19
-7.858165916e-20
0.0025
-3.403474307e-19
2.367503478e-19
0.0025
-4.821119888e-19
-6.351919522e-19
0.0025
2.035157091e-19
4.830488863e-19
0.0025
-3.141122894e-19
8.105999973e-19
0.0025
-1.070136233e-19
4.580953181e-19
0.0025
-5.837056929e-19
3.336697317e-19
0.0025
-6.25815004e-19
1.595513617e-19
0.0025
-3.764729968e-19
-4.899855005e-20
0.0025
-1.157273253e-19
-3.138272799e-19
0.0025
-6.248771726e-19
-7.82208376e-19
0.0025
8.250763822e-20
1.014081409e-18
0.0025
2.7418677e-19
2.319204127e-19
0.0025
8.468442999e-21
2.873870326e-19
0.0025
-4.151159216e-19
2.707638909e-19
0.0025
-2.146103576e-19
1.912138824e-19
0.0025
-3.344425531e-19
-9.722912895e-20
0.0025
-4.001937773e-19
-5.327525193e-19
0.0025
4.782323179e-20
2.578659602e-19
0.0025
8.966535551e-19
1.567324931e-19
0.0025
-1.981550772e-18
-2.511738565e-18
0.0025
-2.311728306e-18
-1.942941073e-18
0.0025
-1.074074965e-18
-1.68951133e-18
0.0025
-1.74413132e-18
-1.316450732e-18
0.0025
-7.132568354e-19
-1.058675971e-18
0.0025
-8.27631912e-19
-7.273249955e-19
0.0025
-1.354747471e-18
-2.597082499e-19
0.0025
-9.910573269e-19
-7.928028114e-19
0.0025
-8.950479665e-19
-1.840636996e-19
0.0025
-6.729656566e-19
-1.942011375e-19
0.0025
-6.257784748e-19
-1.473957757e-20
0.0025
-8.838408073e-19
-2.874088846e-20
0.0025
-1.12155525e-18
-1.59334824e-19
0.0025
-1.297861107e-18
-8.152463818e-20
0.0025
-9.725453802e-19
-1.087263754e-18
0.0025
-1.058720292e-18
-1.446570924e-20
0.0025
-8.91615983e-19
1.621067135e-19
0.0025
-9.973896281e-19
2.558368884e-20
0.0025
-1.024446487e-18
-4.510809491e-19
0.0025
-1.080917169e-18
-4.736932941e-19
0.0025
-1.299129221e-18
-1.105014235e-18
0.0025
-4.59039846e-19
8.859714012e-19
0.0025
-6.715842311e-19
5.667045995e-19
0.0025
-1.137842254e-18
2.000474035e-19
0.0025
-1.113449359e-18
-2.268893824e-19
0.0025
-2.437428165e-19
-1.864148792e-19
0.0025
-6.303334294e-19
-2.774186812e-20
0.0025
-6.104758245e-19
-3.206624943e-19
0.0025
1.189902494e-19
4.839716283e-19
0.0025
-3.258433245e-19
9.132735245e-19
0.0025
-6.044170854e-19
5.863493866e-19
0.0025
-6.675615648e-19
1.889500954e-19
0.0025
-7.451288358e-19
2.290633252e-19
0.0025
-3.961162458e-19
5.392844539e-20
0.0025
-3.576854015e-19
-4.181451931e-19
0.0025
-6.018879312e-19
-7.26034276e-19
0.0025
5.682223539e-19
6.130950978e-19
0.0025
-9.07972699e-20
2.696826291e-19
0.0025
-5.882064041e-19
4.209363741e-19
0.0025
-1.941076134e-19
7.881501768e-19
0.0025
-5.291606916e-19
2.178020691e-19
0.0025
-1.894474157e-19
2.800085888e-19
0.0025
-2.3960765e-19
-2.028596356e-19
0.0025
1.700717008e-19
-2.13984819e-19
0.0025
-3.134711603e-20
-4.24705932e-19
0.0025
1.506879478e-19
3.264863968e-19
0.0025
-2.463323782e-19
2.122532979e-19
0.0025
1.036081768e-19
-7.741063739e-20
0.0025
-6.292796781e-19
6.263736606e-20
0.0025
-2.631992941e-19
3.590033435e-19
0.0025
-3.399199811e-19
-8.545166019e-20
0.0025
-1.099094944e-19
-1.345228938e-19
0.0025
2.418551281e-20
-2.782072324e-19
0.0025
-5.697935801e-19
-4.357593577e-19
0.0025
5.507732761e-19
1.73762516e-19
0.0025
-2.547424397e-18
-3.463277517e-18
0.0025
-2.622766097e-18
-2.264827381e-18
0.0025
-1.993220825e-18
-2.575882056e-18
0.0025
-2.598204078e-18
-1.621092582e-18
0.0025
-1.357309483e-18
-1.667299677e-18
0.0025
-1.334372291e-18
-1.112044129e-18
0.0025
-1.16736566e-18
-6.645670286e-19
0.0025
-1.091954609e-18
-9.541542302e-19
0.0025
-8.981822314e-19
-6.97018485e-19
0.0025
-7.348399868e-19
-6.212788123e-19
0.0025
-1.05937816e-18
-6.739877469e-19
0.0025
-1.150202509e-18
-3.645274243e-19
0.0025
-1.315411577e-18
-5.790589381e-19
0.0025
-9.948222764e-19
-2.984755429e-19
0.0025
-8.350413193e-19
-4.315422333e-19
0.0025
-1.079026193e-18
-1.612932164e-19
0.0025
-1.045952048e-18
-1.936174422e-19
0.0025
-9.212740876e-19
1.066029086e-19
0.0025
-9.872594499e-19
-1.763913862e-19
0.0025
-1.076822593e-18
-7.030050755e-19
0.0025
-8.485133507e-19
-1.227793683e-18
0.0025
-8.325079244e-19
2.799966192e-19
0.0025
-7.733010612e-19
2.057375787e-19
0.0025
-1.051466097e-18
8.047845663e-21
0.0025
-8.382027226e-19
2.057409847e-20
0.0025
-3.74005284e-19
-1.499808e-19
0.0025
-8.974037871e-19
-6.636724687e-19
0.0025
-7.205497119e-19
-4.826509857e-19
0.0025
-4.251665412e-19
6.998947719e-19
0.0025
-3.445176006e-19
6.202371538e-19
0.0025
-8.571142385e-19
7.169266914e-19
0.0025
-8.746986566e-19
6.621541759e-20
0.0025
-6.623746383e-19
-1.173158472e-19
0.0025
-1.470114855e-19
-2.079046559e-19
0.0025
-3.181739319e-19
3.137070196e-20
0.0025
-8.989902723e-19
-6.422158514e-19
0.0025
5.910798928e-19
7.767232084e-19
0.0025
3.820535194e-22
6.272596874e-19
0.0025
-5.305735935e-19
6.888565299e-19
0.0025
-2.65045385e-19
7.16330513e-19
0.0025
-5.902391258e-19
1.917201455e-19
0.0025
-4.249709047e-19
3.694726458e-19
0.0025
-3.463396531e-19
-4.036647519e-19
0.0025
-2.296577235e-19
-4.40609554e-19
0.0025
-3.619446748e-19
-7.267931566e-19
0.0025
-1.130020568e-19
-1.153404846e-19
0.0025
1.958454033e-19
3.793281023e-19
0.0025
-2.324889281e-19
5.437093167e-19
0.0025
-5.856721353e-19
1.358796191e-19
0.0025
-4.193286817e-19
6.400133833e-19
0.0025
-2.715639099e-19
1.883313785e-20
0.0025
-3.714988329e-19
-2.876777753e-20
0.0025
-8.297017015e-20
-2.579835785e-19
0.0025
1.409601348e-19
-2.415471993e-19
0.0025
1.427436987e-19
-4.003226605e-19
0.0025
6.551711512e-20
6.973937094e-19
0.0025
3.306678623e-19
-3.390964608e-20
0.0025
-5.539184607e-19
-1.910309118e-19
0.0025
1.290021538e-19
3.962791123e-19
0.0025
-2.884186952e-19
2.02594851e-19
0.0025
-4.102244898e-19
1.873394415e-19
0.0025
1.548120524e-19
-1.782605471e-19
0.0025
-2.873965239e-19
-4.698681939e-19
0.0025
-2.917074507e-19
2.386895223e-19
0.0025
7.832908522e-20
-5.065360146e-19
0.0025
-1.945700524e-19
-5.353974559e-19
0.0025
-2.747949212e-18
-3.44401178e-18
0.0025
-2.11375944e-18
-2.092115163e-18
0.0025
-1.692063763e-18
-3.058691443e-18
0.0025
-2.994697905e-18
-2.274880465e-18
0.0025
-2.203511483e-18
-1.862971132e-18
0.0025
-1.207813366e-18
-1.541149137e-18
0.0025
-1.208862387e-18
-5.83560888e-19
0.0025
-1.579101973e-18
-1.304757972e-18
0.0025
-1.459940497e-18
-1.193689367e-18
0.0025
-9.09320619e-19
-6.447115582e-19
0.0025
-1.324162168e-18
-1.00548766e-18
0.0025
-1.165326011e-18
-8.060702223e-19
0.0025
-1.514596679e-18
-8.151389604e-19
0.0025
-6.659337244e-19
-6.267076584e-19
0.0025
-8.351424569e-19
-4.290583341e-19
0.0025
-1.123404678e-18
-9.5839969e-20
0.0025
-8.449375052e-19
-3.122499678e-19
0.0025
-9.923837155e-19
-7.682757251e-20
0.0025
-8.261120403e-19
-4.572587505e-19
0.0025
-9.360922646e-19
-5.665111261e-19
0.0025
-1.138870504e-18
-1.088214837e-18
0.0025
-1.061136157e-18
-2.368557541e-19
0.0025
-1.322634693e-18
-6.624788656e-20
0.0025
-7.05917739e-19
1.831702617e-19
0.0025
-8.797842869e-19
1.149730597e-19
0.0025
-7.486182134e-19
-7.181279195e-19
0.0025
-1.119080777e-18
-1.05834533e-18
0.0025
-4.629580808e-19
-6.982267882e-19
0.0025
-1.027141658e-18
3.110326758e-19
0.0025
-6.942396097e-19
2.426721935e-19
0.0025
-9.489317967e-19
4.109120801e-19
0.0025
-8.671036317e-19
5.574063489e-20
0.0025
-6.90581535e-19
-3.705630723e-19
0.0025
-6.202287665e-19
-7.964108838e-19
0.0025
-4.925145301e-19
-2.497575036e-19
0.0025
-1.06151465e-18
-7.349058157e-19
0.0025
-9.658986093e-21
6.476070223e-19
0.0025
-4.967143533e-19
5.174215686e-19
0.0025
-6.31336046e-19
4.847066314e-19
0.0025
-6.283800837e-19
3.895523419e-19
0.0025
-6.770978622e-19
1.186020373e-19
0.0025
-4.790217083e-19
-2.625543858e-19
0.0025
-5.025932091e-19
-4.537138729e-19
0.0025
-8.090615578e-19
-2.85040559e-19
0.0025
-4.804332657e-19
-5.718508442e-19
0.0025
3.901153011e-19
3.680480304e-19
0.0025
3.580309717e-19
4.384586995e-19
0.0025
-3.289157412e-19
6.934697478e-19
0.0025
-4.247423448e-19
2.195522021e-19
0.0025
-5.206270002e-19
5.162387183e-19
0.0025
-3.236468256e-19
1.623378989e-19
0.0025
-6.859728662e-19
-2.01298617e-19
0.0025
-2.065650411e-19
-4.199018313e-19
0.0025
-5.708683229e-20
-2.490483252e-19
0.0025
-7.859589207e-20
-7.876834976e-19
0.0025
-4.676028577e-19
6.162469574e-19
0.0025
2.900814022e-19
4.489695137e-19
0.0025
4.073118289e-19
5.933735441e-19
0.0025
-1.385605176e-20
6.965671792e-19
0.0025
-3.591365412e-19
3.79857798e-19
0.0025
-3.243903769e-19
6.121140258e-20
0.0025
-3.765142402e-19
-1.931228459e-19
0.0025
-5.37259398e-19
-4.570761907e-19
0.0025
-3.030108709e-19
-8.546324541e-20
0.0025
3.865816934e-19
-1.480909885e-19
0.0025
9.381721137e-20
-4.19361788e-19
0.0025
-5.286945085e-19
4.927713937e-19
0.0025
2.216991927e-19
-1.944174675e-20
0.0025
3.798438813e-21
3.788842511e-19
0.0025
-6.646562485e-20
6.430058826e-20
0.0025
1.083120954e-20
6.189531301e-19
0.0025
8.811737357e-20
1.861219245e-19
0.0025
-3.975867368e-19
-5.580657322e-19
0.0025
-3.105475528e-19
-4.326974713e-19
0.0025
-2.658781097e-19
-3.7979027e-19
0.0025
-6.569746951e-19
-4.671224318e-19
0.0025
-2.282801581e-19
-1.705435418e-20
0.0025
2.934609975e-19
-6.851949455e-19
0.0025
-3.011129137e-18
-3.589851346e-18
0.0025
-2.297937587e-18
-2.545006075e-18
0.0025
-2.214000179e-18
-3.464950491e-18
0.0025
-2.249682594e-18
-2.402095606e-18
0.0025
-1.893047615e-18
-1.915162512e-18
0.0025
-7.171036469e-19
-1.605592503e-18
0.0025
-1.783385531e-18
-9.677250185e-19
0.0025
-1.987586557e-18
-1.357901604e-18
0.0025
-1.464962261e-18
-1.369454536e-18
0.0025
-8.068382599e-19
-5.846100309e-19
0.0025
-9.732542167e-19
-8.858323185e-19
0.0025
-1.320176501e-18
-9.272150997e-19
0.0025
-1.620486481e-18
-8.385901508e-19
0.0025
-1.085605526e-18
-1.050522255e-18
0.0025
-1.313254189e-18
-9.390495454e-19
0.0025
-8.077307119e-19
-4.904493847e-19
0.0025
-1.280929572e-18
-8.609946552e-19
0.0025
-1.008316239e-18
-4.243579113e-19
0.0025
-9.454921951e-19
-6.326285572e-19
0.0025
-7.873867144e-19
-4.158730032e-19
0.0025
-6.40461464e-19
-4.782067878e-19
0.0025
-1.423795876e-18
-1.438307282e-19
0.0025
-1.312742572e-18
-5.07085943e-19
0.0025
-7.735420545e-19
3.719884589e-20
0.0025
-8.275866879e-19
-8.754630774e-20
0.0025
-7.874426988e-19
-6.909505301e-19
0.0025
-1.029538826e-18
-5.01908417e-19
0.0025
-4.93175882e-19
-9.26040831e-19
0.0025
-1.666146332e-18
-3.971226494e-19
0.0025
-9.117321369e-19
9.600169661e-20
0.0025
-1.036865474e-18
5.070528987e-20
0.0025
-9.630839452e-19
1.301004054e-19
0.0025
-8.693628815e-19
-6.529047539e-19
0.0025
-7.851680028e-19
-7.793080624e-19
0.0025
-5.8980932e-19
-8.485659661e-19
0.0025
-9.498831384e-19
-7.276215262e-19
0.0025
-2.426505101e-19
1.284831514e-19
0.0025
-1.257743161e-18
2.814749634e-20
0.0025
-1.024163194e-18
-1.139014622e-20
0.0025
-9.174417535e-19
-1.128491827e-19
0.0025
-8.660274872e-19
-1.979146688e-19
0.0025
-8.774474994e-19
-4.870776287e-19
0.0025
-4.599669729e-19
-6.774763961e-19
0.0025
-9.93178436e-19
-6.083492743e-19
0.0025
-7.706009904e-19
-4.843148431e-19
0.0025
2.490225444e-19
7.092197652e-19
0.0025
-9.355304697e-20
2.857952737e-19
0.0025
-6.539125833e-19
4.245296769e-19
0.0025
-5.590690408e-19
9.298241202e-20
0.0025
-9.64526631e-19
-1.390088705e-19
0.0025
-1.012844451e-18
-4.930747702e-19
0.0025
-7.116037169e-19
-3.059451096e-19
0.0025
-4.169665705e-19
-3.640642108e-19
0.0025
-4.806337846e-19
-3.838970858e-19
0.0025
-3.748836417e-19
-8.636161576e-19
0.0025
-3.785146678e-19
5.01405785e-19
0.0025
2.342919901e-19
4.160152772e-19
0.0025
5.053025339e-19
6.151726434e-19
0.0025
-2.974874368e-19
5.030566745e-19
0.0025
-5.576602459e-19
4.314989902e-19
0.0025
-1.313476703e-20
2.46829079e-19
0.0025
-5.785136782e-19
-1.803430589e-19
0.0025
-6.115745517e-19
-3.278142731e-19
0.0025
-1.902061046e-19
-4.694467469e-19
0.0025
-1.085552659e-19
-3.177732023e-19
0.0025
-3.002668478e-20
-7.345671749e-19
0.0025
-6.223604684e-20
3.198598181e-19
0.0025
-4.022023416e-19
6.446886993e-19
0.0025
1.287036751e-19
5.616551498e-19
0.0025
3.474007704e-19
4.443940481e-19
0.0025
1.547877952e-19
4.668632183e-19
0.0025
-4.905989813e-19
1.705585791e-19
0.0025
-3.061641874e-19
-2.282239305e-19
0.0025
-3.812709125e-19
-1.397812787e-19
0.0025
-2.83685657e-19
-2.680227637e-19
0.0025
-3.116732045e-19
-3.198244021e-19
0.0025
1.795489223e-19
1.03786304e-19
0.0025
5.604821491e-19
-3.410001847e-19
0.0025
3.679448705e-19
1.195640432e-18
0.0025
-3.157443198e-19
-4.510408491e-19
0.0025
1.657194459e-19
4.826201942e-19
0.0025
2.641805427e-19
6.882780753e-19
0.0025
5.650791741e-19
5.682280291e-19
0.0025
-9.034917418e-20
-2.369222572e-19
0.0025
-6.019388077e-19
-1.220822569e-19
0.0025
-2.439202159e-19
-7.816211157e-19
0.0025
-1.88096055e-19
-2.406074584e-19
0.0025
-3.750122856e-19
2.560114188e-19
0.0025
-4.24029706e-20
-2.395674669e-19
0.0025
-1.158484589e-20
9.254503388e-20
0.0025
1.114721298e-18
1.578555329e-19
0.0025
-3.017635073e-18
-3.407454059e-18
0.0025
-2.984884418e-18
-2.786476006e-18
0.0025
-2.428066845e-18
-3.426971416e-18
0.0025
-2.367726654e-18
-2.390015926e-18
0.0025
-1.809992608e-18
-2.064855074e-18
0.0025
-1.054319694e-18
-2.123539894e-18
0.0025
-2.250151861e-18
-1.635736167e-18
0.0025
-1.989864544e-18
-1.936746486e-18
0.0025
-1.250400496e-18
-1.318936639e-18
0.0025
-5.78603969e-19
-8.001599843e-19
0.0025
-1.045721419e-18
-8.89815405e-19
0.0025
-1.250370944e-18
-7.050406371e-19
0.0025
-1.791993062e-18
-8.742962739e-19
0.0025
-1.091196999e-18
-9.923056261e-19
0.0025
-1.21073664e-18
-9.48318545e-19
0.0025
-8.456128279e-19
-8.852590937e-19
0.0025
-1.256055986e-18
-7.585023904e-19
0.0025
-8.920052559e-19
-6.872933171e-19
0.0025
-1.225807505e-18
-4.484344923e-19
0.0025
-1.027507155e-18
-6.375596912e-19
0.0025
-6.224353301e-19
-4.544836763e-19
0.0025
-1.858257378e-18
-6.030971215e-19
0.0025
-8.405419453e-19
-3.975795059e-19
0.0025
-7.347283272e-19
-3.796217173e-19
0.0025
-9.222911458e-19
-5.095262403e-19
0.0025
-1.060602335e-18
-4.360937422e-19
0.0025
-5.687339072e-19
-8.023399337e-20
0.0025
-7.706111259e-19
-7.537872666e-19
0.0025
-2.082415716e-18
-2.26614938e-19
0.0025
-1.130308076e-18
-3.024196706e-19
0.0025
-7.955058174e-19
-4.198178002e-19
0.0025
-1.347152662e-18
-6.849926069e-20
0.0025
-8.167901831e-19
-5.868293661e-19
0.0025
-7.141215269e-19
-3.681519588e-19
0.0025
-8.155911911e-19
-6.89834632e-19
0.0025
-3.123561579e-19
-6.121026764e-19
0.0025
-1.154124695e-18
3.396135963e-19
0.0025
-1.243439039e-18
-3.054811394e-19
0.0025
-9.757057557e-19
-2.09202896e-19
0.0025
-1.506170521e-18
-2.028077991e-19
0.0025
-9.7845442e-19
-4.491117131e-19
0.0025
-8.617044012e-19
-7.876997273e-19
0.0025
-6.270014698e-19
-5.564845008e-19
0.0025
-6.213518254e-19
-6.053674907e-19
0.0025
-5.171742954e-19
-6.759821651e-19
0.0025
-8.399887821e-19
1.454111388e-19
0.0025
-4.993155019e-19
4.93026995e-19
0.0025
-9.278423178e-19
-1.498171703e-20
0.0025
-7.647792408e-19
3.411385001e-20
0.0025
-9.993624669e-19
-3.853832806e-19
0.0025
-1.145133498e-18
-5.594879344e-19
0.0025
-6.42231217e-19
-4.399098551e-19
0.0025
-4.497031434e-19
-6.066033784e-19
0.0025
-5.875953667e-19
-5.726677862e-19
0.0025
-9.685486188e-19
-9.246004382e-19
0.0025
-1.606141014e-19
4.74635433e-19
0.0025
-2.161669254e-20
3.3591088e-19
0.0025
4.942918522e-20
5.687872787e-19
0.0025
-6.762246997e-19
1.64510072e-19
0.0025
-7.049923182e-19
-4.44073825e-20
0.0025
-5.111026805e-19
1.240975572e-19
0.0025
-5.507140928e-19
-1.957138354e-19
0.0025
-5.153608201e-19
-2.501396854e-19
0.0025
-2.034059061e-19
-4.422159135e-19
0.0025
-6.12817227e-19
-6.934057059e-19
0.0025
-5.937910453e-19
-1.237421754e-18
0.0025
-2.680676827e-19
5.614868824e-19
0.0025
-2.611752387e-19
2.039021873e-19
0.0025
1.029073787e-19
5.058640454e-19
0.0025
3.614943863e-19
4.793895068e-19
0.0025
-1.683115981e-19
5.135007871e-19
0.0025
-6.136504031e-19
4.497239184e-20
0.0025
-5.004879244e-19
-2.601673707e-19
0.0025
-4.442491556e-19
-3.437090616e-20
0.0025
-3.648916012e-19
-1.706375473e-19
0.0025
5.988526683e-20
-3.132252156e-19
0.0025
1.082789983e-19
-7.902277957e-20
0.0025
6.312821515e-19
-2.398586364e-19
0.0025
4.289272706e-19
8.404200459e-19
0.0025
-9.144892416e-20
5.34887983e-19
0.0025
-5.557177616e-20
4.010734035e-19
0.0025
5.896044574e-20
2.705110093e-19
0.0025
1.020645069e-19
7.149122596e-20
0.0025
-1.817216417e-19
3.3288242e-20
0.0025
-9.021206564e-19
-5.343864184e-20
0.0025
-2.006974318e-19
-3.346474819e-19
0.0025
-2.245989761e-19
5.065314467e-21
0.0025
-3.358768882e-19
7.809610454e-20
0.0025
-7.010900802e-20
-2.788495752e-19
0.0025
2.684294411e-19
-2.98925897e-19
0.0025
6.141072245e-19
2.117058243e-21
0.0025
1.456974506e-19
7.538247505e-19
0.0025
-3.017965532e-19
5.576894132e-19
0.0025
7.876147554e-19
3.782719519e-20
0.0025
-1.999240637e-19
3.014595014e-19
0.0025
-1.498817152e-19
-2.496376347e-19
0.0025
-4.609954765e-19
-4.894666862e-19
0.0025
-3.255759127e-19
3.824727002e-20
0.0025
-1.012919792e-19
2.169515766e-19
0.0025
4.106181275e-19
-2.533739795e-19
0.0025
-1.222233294e-19
1.001201555e-19
0.0025
-2.475666446e-19
5.235818895e-19
0.0025
4.069525618e-19
8.258270654e-20
0.0025
2.076008116e-19
-5.499468773e-19
0.0025
3.491286657e-19
5.810074273e-19
0.0025
-2.057433146e-18
-2.100916547e-18
0.0025
-2.891536462e-18
-2.465074784e-18
0.0025
-2.108942839e-18
-2.92870815e-18
0.0025
-2.564661989e-18
-2.307387318e-18
0.0025
-2.232305307e-18
-2.32819347e-18
0.0025
-1.487340742e-18
-2.896063176e-18
0.0025
-1.824351689e-18
-1.631204522e-18
0.0025
-2.00495072e-18
-2.081131874e-18
0.0025
-1.238456408e-18
-1.376717104e-18
0.0025
-6.252001514e-19
-6.593202544e-19
0.0025
-1.846526295e-18
-1.578962532e-18
0.0025
-1.464013573e-18
-9.517255004e-19
0.0025
-1.436232712e-18
-1.223368761e-18
0.0025
-9.11307802e-19
-8.974260876e-19
0.0025
-8.043412724e-19
-1.901710678e-19
0.0025
-7.220484525e-19
-6.342723745e-19
0.0025
-9.888553185e-19
-7.316340858e-19
0.0025
-1.117662346e-18
-3.758879519e-19
0.0025
-1.188877912e-18
-4.879637923e-19
0.0025
-1.077809851e-18
-8.966348742e-19
0.0025
-7.485368191e-19
-5.621953679e-19
0.0025
-1.213075558e-18
-8.34349562e-19
0.0025
-8.823212226e-19
-4.766572529e-19
0.0025
-8.069915944e-19
-5.667413694e-19
0.0025
-8.867420767e-19
-5.195461747e-19
0.0025
-1.141345276e-18
-4.87402924e-19
0.0025
-7.27561712e-19
-1.324359518e-19
0.0025
-8.684605776e-19
-4.911120433e-19
0.0025
-2.33163201e-18
-2.247736504e-19
0.0025
-1.353105205e-18
-8.13566566e-19
0.0025
-6.182277143e-19
-4.218983199e-19
0.0025
-1.053627035e-18
-3.212080524e-19
0.0025
-7.93464172e-19
-4.36292841e-19
0.0025
-9.068894258e-19
-7.104924268e-19
0.0025
-1.218021418e-18
-3.805044093e-19
0.0025
-2.090848813e-19
-5.043059919e-19
0.0025
-1.324762061e-18
9.022493107e-19
0.0025
-1.174796307e-18
-2.193602812e-19
0.0025
-6.987271057e-19
-3.467034961e-19
0.0025
-1.275180736e-18
-7.412135607e-20
0.0025
-1.076908456e-18
-6.643503359e-19
0.0025
-7.34684655e-19
-4.603596512e-19
0.0025
-7.757310269e-19
-4.337937937e-19
0.0025
-7.330907813e-19
-7.663230438e-19
0.0025
-1.747560992e-19
-4.946869648e-19
0.0025
-1.237482502e-18
1.894632624e-19
0.0025
-8.661021109e-19
4.742220566e-19
0.0025
-1.010056039e-18
-2.618640568e-19
0.0025
-8.854175339e-19
4.35211612e-20
0.0025
-1.2933082e-18
-6.385988537e-19
0.0025
-1.179540325e-18
-7.752907275e-19
0.0025
-6.909015263e-19
-7.165596678e-19
0.0025
-8.72791663e-19
-6.490630058e-19
0.0025
-4.081806518e-19
-2.192826505e-19
0.0025
-5.29655422e-19
-6.744510227e-19
0.0025
-4.512753272e-19
1.670651631e-19
0.0025
-8.324192605e-19
2.560321641e-19
0.0025
-5.559599329e-19
4.328167079e-19
0.0025
-6.973047214e-19
-5.926886741e-21
0.0025
-9.537221739e-19
-3.405016552e-19
0.0025
-1.041885101e-18
-1.573578091e-19
0.0025
-7.067206634e-19
-2.877973929e-19
0.0025
-3.194870958e-19
-4.684280716e-19
0.0025
-1.921724103e-19
-4.557554133e-19
0.0025
-6.31341207e-19
-5.438320542e-19
0.0025
-6.49947766e-19
-6.74033909e-19
0.0025
-2.546732654e-19
5.178757082e-19
0.0025
-2.341322174e-19
1.629338412e-20
0.0025
-5.462704496e-20
3.84959049e-19
0.0025
-2.488200699e-19
3.142273551e-19
0.0025
-5.409204437e-19
1.737084677e-19
0.0025
-2.966210493e-19
2.216838639e-19
0.0025
-5.721648157e-19
-1.566220391e-19
0.0025
-3.770245762e-19
8.05448664e-20
0.0025
-2.763314022e-19
-2.820563197e-19
0.0025
-3.122652828e-19
-3.023435649e-19
0.0025
-1.863859178e-19
-4.89210028e-19
0.0025
3.319611548e-19
-5.507030146e-19
0.0025
2.6781657e-19
7.41181497e-19
0.0025
-3.613843883e-19
2.350071234e-19
0.0025
-2.287681949e-20
4.083909443e-19
0.0025
-1.189962792e-19
-1.271724689e-19
0.0025
-1.083965297e-19
2.680339943e-19
0.0025
-4.250728059e-19
2.490684678e-19
0.0025
-5.159678024e-19
1.13054027e-19
0.0025
-3.056358601e-20
-9.001709362e-20
0.0025
-4.111089292e-19
-7.871847759e-20
0.0025
-3.067026183e-19
-2.078839461e-19
0.0025
6.516983948e-20
-2.365882036e-19
0.0025
2.395957827e-19
-2.872601084e-19
0.0025
3.453988822e-19
-2.996754532e-19
0.0025
2.167692064e-19
6.799393391e-19
0.0025
2.291685023e-19
7.521664081e-19
0.0025
4.056117202e-19
3.499684546e-19
0.0025
-4.665124707e-19
1.623423487e-19
0.0025
-1.979429942e-20
2.064689903e-20
0.0025
-1.830155608e-19
-7.920068563e-20
0.0025
-2.011704374e-19
4.585483126e-20
0.0025
-4.934464071e-19
1.111956264e-19
0.0025
-9.899067988e-20
-1.864375524e-19
0.0025
-2.612575265e-19
-2.723840973e-20
0.0025
-1.582613972e-19
2.124187204e-19
0.0025
1.282781628e-19
-1.661782514e-19
0.0025
5.607548862e-19
-3.972848934e-19
0.0025
2.425178716e-19
-1.306038267e-19
0.0025
-2.547498184e-19
2.287051574e-19
0.0025
-1.930943886e-19
1.045726611e-18
0.0025
3.515359714e-19
-2.499364606e-19
0.0025
6.648162187e-20
9.137898887e-20
0.0025
-1.272609329e-19
9.569280771e-21
0.0025
-8.697037382e-20
-2.148205045e-19
0.0025
-9.064441502e-21
-1.343187276e-19
0.0025
-4.261555153e-19
-4.094661265e-19
0.0025
-4.82546263e-19
1.741632119e-20
0.0025
4.900336801e-19
1.180523319e-19
0.0025
-1.661414067e-19
5.195922694e-19
0.0025
-2.284370166e-19
8.015659639e-20
0.0025
3.427583134e-19
-4.625178963e-19
0.0025
-1.268534801e-19
-2.552764624e-19
0.0025
-2.805939269e-19
4.631788188e-19
0.0025
-7.383504919e-19
-5.503897733e-19
0.0025
-1.519084907e-18
-1.90634199e-18
0.0025
-1.828280611e-18
-2.162212415e-18
0.0025
-2.445969117e-18
-2.233242023e-18
0.0025
-2.074023492e-18
-2.204271313e-18
0.0025
-1.917030192e-18
-3.147686564e-18
0.0025
-1.633293258e-18
-1.527627254e-18
0.0025
-2.007041235e-18
-1.871796731e-18
0.0025
-1.641861612e-18
-1.906441723e-18
0.0025
-8.335205527e-19
-1.575982551e-18
0.0025
-1.964337527e-18
-1.923879898e-18
0.0025
-1.539707974e-18
-1.398975523e-18
0.0025
-1.561313338e-18
-1.430672124e-18
0.0025
-7.085231138e-19
-7.051379046e-19
0.0025
-8.897972005e-19
-1.45426975e-19
0.0025
-1.113021572e-18
-5.368591458e-19
0.0025
-8.101559527e-19
-9.400503153e-19
0.0025
-1.387808927e-18
-7.589713554e-19
0.0025
-1.203584594e-18
-1.087592932e-18
0.0025
-1.141288167e-18
-7.128981252e-19
0.0025
-9.059309573e-19
1.992679334e-19
0.0025
-5.937161016e-19
-9.781449631e-19
0.0025
-1.118602632e-18
-5.131843081e-19
0.0025
-8.240945448e-19
-6.062627999e-19
0.0025
-1.217224018e-18
-6.894200511e-19
0.0025
-1.374117276e-18
-7.392354256e-19
0.0025
-8.136514553e-19
-6.82560921e-19
0.0025
-1.183896588e-18
-4.442193002e-19
0.0025
-1.810353692e-18
-6.955509948e-19
0.0025
-1.083451318e-18
-7.081364321e-19
0.0025
-6.9666276e-19
-4.859527108e-19
0.0025
-9.385208042e-19
-4.953114816e-19
0.0025
-9.890127307e-19
-6.996774915e-19
0.0025
-1.130805282e-18
-5.92894757e-19
0.0025
-1.276130563e-18
-6.123509339e-19
0.0025
-6.140596935e-19
-2.234344933e-19
0.0025
-1.839734008e-18
6.243831026e-19
0.0025
-1.306766584e-18
-1.457130471e-19
0.0025
-5.767320294e-19
-2.841995831e-19
0.0025
-1.016656857e-18
-4.101442626e-19
0.0025
-7.149111016e-19
-5.046103793e-19
0.0025
-8.847074462e-19