/*--------------------------------*- C++ -*----------------------------------*\
| =========                 |                                                 |
| \\      /  F ield         | OpenFOAM: The Open Source CFD Toolbox           |
|  \\    /   O peration     | Version:  2212                                  |
|   \\  /    A nd           | Website:  www.openfoam.com                      |
|    \\/     M anipulation  |                                                 |
\*---------------------------------------------------------------------------*/
FoamFile
{
    version     2.0;
    format      ascii;
    arch        "LSB;label=32;scalar=64";
    class       surfaceScalarField;
    location    "1.6";
    object      phiHbyA;
}
// * * * * * * * * * * * * * * * * * * * * * * * * * * * * * * * * * * * * * //

dimensions      [0 3 -1 0 0 0 0];

oriented        oriented;

internalField   nonuniform List<scalar> 
124950
(
0.0025
-2.254587927e-19
3.131748598e-19
0.0025
-1.185057983e-18
3.813147435e-19
0.0025
-8.62173123e-20
3.349135408e-19
0.0025
-4.590785979e-19
-1.331716844e-19
0.0025
-1.854666865e-18
1.997524503e-19
0.0025
-1.011922765e-18
6.17162299e-19
0.0025
-1.056855308e-18
-2.055366722e-19
0.0025
-2.245288278e-19
3.451576307e-19
0.0025
-1.209331412e-19
2.863339932e-19
0.0025
2.10858013e-20
-1.832610978e-19
0.0025
-1.558066412e-18
3.142168175e-19
0.0025
-1.654205935e-18
5.832637005e-19
0.0025
-1.317162216e-18
-1.831322009e-19
0.0025
-7.128061699e-19
7.328367897e-19
0.0025
-8.602297909e-19
2.842811459e-19
0.0025
-6.389950522e-19
-3.126227344e-19
0.0025
-4.812454906e-19
5.24438244e-19
0.0025
-8.814832527e-20
1.987922132e-19
0.0025
3.370559608e-20
1.697206433e-19
0.0025
7.800940516e-20
-2.423790279e-19
0.0025
-5.703654153e-19
6.013149272e-19
0.0025
-1.444715248e-18
5.195125263e-19
0.0025
-1.159628109e-18
1.740312728e-19
0.0025
-1.03699533e-18
7.840982924e-19
0.0025
-1.403586085e-18
-8.061278954e-22
0.0025
-1.32666416e-18
-3.915620934e-19
0.0025
-7.423400099e-19
7.444007865e-19
0.0025
-7.555486534e-19
2.682522721e-19
0.0025
-5.679437407e-19
1.887433749e-19
0.0025
-6.60628849e-19
-3.292952248e-19
0.0025
-3.391084204e-20
7.507071736e-19
0.0025
-4.30284344e-19
2.994018058e-19
0.0025
-4.967233509e-20
2.672756558e-19
0.0025
-1.881081998e-20
2.082137867e-19
0.0025
3.735442821e-19
-1.697151275e-19
0.0025
-4.104519718e-19
3.222131336e-19
0.0025
-6.347181318e-19
4.476431355e-19
0.0025
-7.977023646e-19
5.564962832e-19
0.0025
-1.005898753e-18
6.146214969e-19
0.0025
-1.296039485e-18
9.769265496e-20
0.0025
-1.385989176e-18
-1.655350602e-19
0.0025
-9.512017581e-19
7.121783741e-19
0.0025
-1.143087127e-18
3.012455179e-19
0.0025
-1.159609873e-18
-1.904713135e-19
0.0025
-1.065232434e-18
-4.40213926e-19
0.0025
-4.490328908e-19
7.882910059e-19
0.0025
-7.991391285e-19
5.79074955e-19
0.0025
-3.599130322e-19
3.084859506e-19
0.0025
-4.386380424e-19
2.511100006e-19
0.0025
3.840633163e-20
-3.280574768e-19
0.0025
2.963533363e-19
4.97437562e-19
0.0025
-1.991783726e-19
6.472507909e-19
0.0025
-3.074223389e-19
7.84430341e-20
0.0025
5.81039898e-20
4.005130136e-19
0.0025
1.62272121e-19
1.973478735e-19
0.0025
7.367436133e-19
2.068020036e-19
0.0025
-1.167064453e-18
-1.242396041e-18
0.0025
-3.843567789e-19
2.484323121e-19
0.0025
-8.37973592e-19
3.201728017e-19
0.0025
-1.044235075e-18
7.71678577e-20
0.0025
-9.107699094e-19
1.685153919e-19
0.0025
-1.168500729e-18
2.957159996e-19
0.0025
-9.686753683e-19
6.031378335e-19
0.0025
-9.435425537e-19
3.929863112e-19
0.0025
-1.153799837e-18
-2.34766525e-19
0.0025
-1.090034894e-18
-3.690577262e-19
0.0025
-9.037336629e-19
7.26185663e-19
0.0025
-9.931819264e-19
5.016999609e-19
0.0025
-7.723264311e-19
1.641849038e-19
0.0025
-8.191758717e-19
-1.498875811e-19
0.0025
-6.52399678e-19
-3.890594682e-19
0.0025
-7.139125179e-20
7.315603311e-19
0.0025
-3.836610483e-19
7.138651027e-19
0.0025
-5.593551379e-19
3.107862545e-19
0.0025
-2.461246133e-19
5.04849851e-19
0.0025
-2.117384228e-19
4.540166386e-20
0.0025
9.044284675e-20
-6.809991455e-20
0.0025
-3.326329949e-21
2.869213798e-19
0.0025
1.252995265e-19
5.624614034e-19
0.0025
-1.842994279e-19
4.380928566e-19
0.0025
6.40510287e-20
2.265776793e-19
0.0025
-1.708434485e-19
1.566152425e-19
0.0025
3.695514391e-19
-9.091250206e-20
0.0025
2.456575743e-19
1.682541265e-20
0.0025
-1.952940066e-18
-2.546305967e-18
0.0025
-9.728809469e-19
-3.038325903e-19
0.0025
-5.615188126e-19
-6.612431498e-19
0.0025
-1.213064975e-18
-6.793890777e-19
0.0025
-6.844954759e-19
1.183792858e-19
0.0025
-9.344658471e-19
3.042144094e-19
0.0025
-9.104785336e-19
4.722658917e-19
0.0025
-1.044923239e-18
-1.273035139e-19
0.0025
-9.654745595e-19
-1.098792451e-20
0.0025
-1.367888495e-18
-1.523226061e-19
0.0025
-9.977224428e-19
7.238849248e-19
0.0025
-8.813409893e-19
5.97389358e-19
0.0025
-8.05182335e-19
1.161522968e-19
0.0025
-7.956606888e-19
-4.996472997e-19
0.0025
-1.216429698e-18
-4.657017775e-19
0.0025
-4.655273175e-19
7.338054303e-19
0.0025
-7.331571073e-19
5.158089846e-19
0.0025
-8.254208497e-19
3.028718953e-19
0.0025
-6.067818475e-19
9.340595216e-20
0.0025
-5.491305931e-19
-1.148123463e-19
0.0025
-6.902573671e-19
-3.114476743e-19
0.0025
-6.027803195e-21
9.663257284e-19
0.0025
-9.894811882e-20
6.90787998e-19
0.0025
-3.708295804e-19
4.738117244e-19
0.0025
-3.655388026e-19
2.713463386e-19
0.0025
-5.491381022e-19
1.875995385e-19
0.0025
6.637045494e-20
-2.362251802e-19
0.0025
9.550795479e-20
-2.17881644e-19
0.0025
-8.661341797e-21
3.840409039e-19
0.0025
7.522676186e-20
1.545409097e-19
0.0025
9.590762355e-20
4.317376916e-19
0.0025
-1.337871398e-19
1.598724142e-19
0.0025
-2.198088188e-19
2.084353882e-19
0.0025
-1.172694014e-19
-2.091422567e-19
0.0025
-1.533764196e-21
-8.380529337e-20
0.0025
1.243380919e-19
-1.871108069e-19
0.0025
-2.03016316e-18
-2.49204346e-18
0.0025
-1.835110905e-18
-1.262659982e-18
0.0025
-5.941829299e-19
-1.597600963e-18
0.0025
-1.493901637e-18
-1.006041643e-18
0.0025
-5.796957197e-19
-2.596301935e-19
0.0025
-7.191699234e-19
-1.019064941e-19
0.0025
-1.04838535e-18
3.394421529e-19
0.0025
-8.809765688e-19
-5.264302963e-19
0.0025
-8.687711684e-19
1.377279032e-19
0.0025
-1.300589034e-18
-2.021349435e-19
0.0025
-8.137319251e-19
3.605926184e-19
0.0025
-9.792571185e-19
4.290481929e-19
0.0025
-7.465335238e-19
-1.963208558e-19
0.0025
-1.100963341e-18
-3.16372199e-19
0.0025
-1.420428013e-18
-7.865757838e-19
0.0025
-6.840553718e-19
5.958063894e-19
0.0025
-9.493983749e-19
3.703857942e-19
0.0025
-9.144314983e-19
3.925934994e-19
0.0025
-6.552351014e-19
-2.560351622e-19
0.0025
-7.415859873e-19
-3.755087372e-19
0.0025
-1.217173352e-18
-4.929680578e-19
0.0025
-1.027667974e-19
1.052433904e-18
0.0025
-3.940144647e-19
5.792964263e-19
0.0025
-7.235775335e-19
2.730126172e-19
0.0025
-7.892525786e-19
1.764929191e-19
0.0025
-6.385831524e-19
-6.171168457e-20
0.0025
-4.170008907e-19
-4.692867619e-20
0.0025
-3.61059704e-19
-4.723749875e-19
0.0025
2.79444742e-19
4.846942166e-19
0.0025
-1.344840062e-19
7.552491328e-19
0.0025
-1.428104536e-19
4.999884253e-19
0.0025
-3.483082371e-19
2.027043659e-19
0.0025
-6.079243753e-19
2.72819053e-19
0.0025
-2.331998575e-19
-1.229806218e-19
0.0025
1.585379742e-20
-2.512551494e-19
0.0025
-2.604386776e-19
-4.585400166e-19
0.0025
9.64039315e-20
6.126415045e-19
0.0025
6.72740349e-20
1.964194254e-19
0.0025
7.19347128e-20
9.339160247e-20
0.0025
-3.688270611e-19
2.167961201e-19
0.0025
-1.378281536e-19
-6.891101795e-22
0.0025
-2.272630057e-19
-5.576585203e-20
0.0025
-1.974674982e-19
-3.377669756e-19
0.0025
8.51313225e-20
1.290341123e-19
0.0025
4.738318796e-19
1.351109057e-19
0.0025
-2.250248413e-18
-2.830720077e-18
0.0025
-2.398965242e-18
-1.86010007e-18
0.0025
-1.090550756e-18
-1.841715326e-18
0.0025
-1.689972589e-18
-1.168056363e-18
0.0025
-6.783970042e-19
-9.975393151e-19
0.0025
-7.851097166e-19
-6.182075651e-19
0.0025
-1.190916637e-18
-1.786228711e-20
0.0025
-9.854255021e-19
-8.20339231e-19
0.0025
-8.705834416e-19
-1.627530457e-19
0.0025
-8.941633474e-19
-2.835654383e-19
0.0025
-7.178054041e-19
-2.205593323e-20
0.0025
-9.86406809e-19
3.728213743e-20
0.0025
-9.164440522e-19
-1.704425696e-19
0.0025
-1.078695772e-18
-2.968174751e-20
0.0025
-1.143809291e-18
-9.16637004e-19
0.0025
-8.937501965e-19
1.687872696e-19
0.0025
-8.996834455e-19
1.785923865e-19
0.0025
-8.886262377e-19
2.308703936e-19
0.0025
-8.688424875e-19
-3.456149836e-19
0.0025
-1.016669861e-18
-5.629263041e-19
0.0025
-1.406885224e-18
-1.006962332e-18
0.0025
-5.40366481e-19
8.03736496e-19
0.0025
-5.20186934e-19
5.473869467e-19
0.0025
-1.033247956e-18
1.283926309e-19
0.0025
-1.003742255e-18
-1.430073041e-19
0.0025
-4.301431666e-19
-3.711976113e-19
0.0025
-7.3681167e-19
-1.182208453e-20
0.0025
-6.645393903e-19
-5.262054836e-19
0.0025
2.359281703e-19
5.117676939e-19
0.0025
-2.744538196e-19
8.433513446e-19
0.0025
-4.522163439e-19
5.296812446e-19
0.0025
-5.600898073e-19
1.347341382e-19
0.0025
-7.125517803e-19
2.225272346e-19
0.0025
-3.690004878e-19
-5.57959305e-20
0.0025
-2.603842134e-19
-2.824978238e-19
0.0025
-5.07204842e-19
-6.58716791e-19
0.0025
3.993703118e-19
6.504937116e-19
0.0025
2.03819575e-20
2.765791372e-19
0.0025
-3.463307483e-19
2.771112599e-19
0.0025
-4.15622665e-19
4.951638353e-19
0.0025
-4.557842116e-19
1.398223615e-19
0.0025
-3.628041859e-19
5.424751386e-20
0.0025
-2.481135138e-19
-3.861141635e-19
0.0025
5.582616515e-20
1.681858148e-21
0.0025
2.265383248e-19
-2.662812336e-19
0.0025
9.445177437e-20
1.536430605e-19
0.0025
-4.525982669e-21
2.328174945e-19
0.0025
-4.723937436e-20
-5.30383502e-20
0.0025
-3.47445691e-19
3.883195175e-20
0.0025
-1.867480772e-19
2.481693283e-19
0.0025
-1.820687997e-19
-7.001232268e-20
0.0025
-2.875388644e-20
-1.607884503e-19
0.0025
5.660691611e-21
-5.01743073e-20
0.0025
-1.756207164e-19
-1.652593172e-19
0.0025
4.207418779e-19
2.642994636e-19
0.0025
-2.563907767e-18
-3.458461556e-18
0.0025
-2.631089529e-18
-2.182068242e-18
0.0025
-1.860444702e-18
-2.515135836e-18
0.0025
-2.23992618e-18
-1.498415675e-18
0.0025
-1.404353972e-18
-1.672155794e-18
0.0025
-1.20391652e-18
-9.931866445e-19
0.0025
-1.241588204e-18
-5.243512222e-19
0.0025
-1.046240142e-18
-1.032297055e-18
0.0025
-1.002601881e-18
-6.067859769e-19
0.0025
-7.106723804e-19
-5.58599327e-19
0.0025
-8.907475639e-19
-4.573897513e-19
0.0025
-1.0124232e-18
-2.92419483e-19
0.0025
-1.210135391e-18
-5.005997174e-19
0.0025
-9.132091848e-19
-2.353402104e-19
0.0025
-9.038081899e-19
-6.783625542e-19
0.0025
-8.82049342e-19
-1.46147946e-20
0.0025
-9.839052841e-19
-5.065727849e-20
0.0025
-9.469029515e-19
4.945616611e-20
0.0025
-8.28187249e-19
-2.8542699e-19
0.0025
-1.018535753e-18
-5.424382243e-19
0.0025
-1.028953314e-18
-1.067903986e-18
0.0025
-8.328116638e-19
4.256749785e-19
0.0025
-6.466847646e-19
2.469392646e-19
0.0025
-1.034817546e-18
-1.181602372e-20
0.0025
-9.545899063e-19
-1.724474257e-19
0.0025
-5.168887742e-19
-4.536297583e-19
0.0025
-1.047572427e-18
-4.744549719e-19
0.0025
-7.363715562e-19
-6.655453141e-19
0.0025
-4.098419934e-19
6.799413083e-19
0.0025
-3.632951998e-19
5.612366586e-19
0.0025
-7.453997838e-19
5.947317646e-19
0.0025
-8.206445119e-19
1.083833005e-19
0.0025
-5.943817299e-19
-2.713771907e-19
0.0025
-3.026904469e-19
-2.801464242e-19
0.0025
-5.128137244e-19
-1.287548029e-19
0.0025
-9.086151552e-19
-6.93411676e-19
0.0025
5.722307137e-19
6.134598873e-19
0.0025
-7.385258329e-20
4.42779183e-19
0.0025
-5.937424132e-19
4.730737789e-19
0.0025
-2.719592525e-19
6.160375566e-19
0.0025
-5.288443675e-19
1.487592206e-19
0.0025
-4.288186834e-19
1.963800343e-19
0.0025
-3.825921308e-19
-3.514218879e-19
0.0025
-2.157610408e-19
-3.244806201e-19
0.0025
-2.179577122e-19
-5.647978401e-19
0.0025
-9.848021089e-21
6.627461415e-20
0.0025
1.717273884e-19
3.838584453e-19
0.0025
-1.236758658e-19
2.767595628e-19
0.0025
-4.669211192e-19
1.242278906e-19
0.0025
-3.595091203e-19
5.410368245e-19
0.0025
-2.191842811e-19
8.100287797e-21
0.0025
-3.298273783e-19
-1.913765201e-19
0.0025
-7.083024868e-20
-1.913097384e-19
0.0025
-1.222782379e-19
-1.62027422e-19
0.0025
3.223631002e-19
-1.671793442e-19
0.0025
-8.047928749e-20
3.849145866e-19
0.0025
1.35470297e-19
6.64488641e-20
0.0025
-2.323177516e-19
-1.897702021e-19
0.0025
-4.495697489e-20
1.453083364e-19
0.0025
-2.337500697e-19
1.603763928e-19
0.0025
-2.651577159e-19
1.966573433e-20
0.0025
1.295501892e-19
-2.058855163e-19
0.0025
-2.076003286e-19
-2.142417621e-19
0.0025
-2.826387651e-19
1.238392674e-19
0.0025
8.715165355e-20
-2.67674748e-19
0.0025
-1.75393863e-19
-1.899548608e-19
0.0025
-2.739406947e-18
-3.43468434e-18
0.0025
-2.366301312e-18
-2.324332896e-18
0.0025
-1.945467923e-18
-3.156913096e-18
0.0025
-2.799585491e-18
-2.162696549e-18
0.0025
-2.182444165e-18
-1.937290482e-18
0.0025
-1.210139785e-18
-1.453506506e-18
0.0025
-1.32485159e-18
-6.545882735e-19
0.0025
-1.415912687e-18
-1.215586411e-18
0.0025
-1.412957309e-18
-1.154915309e-18
0.0025
-8.585299644e-19
-6.984640524e-19
0.0025
-9.956388782e-19
-8.161058514e-19
0.0025
-1.190119421e-18
-7.861346733e-19
0.0025
-1.370803839e-18
-7.402288214e-19
0.0025
-7.856757427e-19
-5.673300467e-19
0.0025
-8.139519554e-19
-4.959520526e-19
0.0025
-1.003465462e-18
-1.800064033e-19
0.0025
-9.771662074e-19
-3.998251753e-19
0.0025
-1.014287555e-18
-8.208135191e-20
0.0025
-8.045488546e-19
-4.753389581e-19
0.0025
-9.356947131e-19
-4.541900329e-19
0.0025
-8.488518289e-19
-8.346369634e-19
0.0025
-1.073172868e-18
2.915730321e-20
0.0025
-1.007690307e-18
-5.231761599e-20
0.0025
-7.729008677e-19
1.856543865e-19
0.0025
-8.457822834e-19
5.773832628e-21
0.0025
-5.897096359e-19
-4.884116316e-19
0.0025
-9.916445001e-19
-8.076780386e-19
0.0025
-5.515240722e-19
-7.096082015e-19
0.0025
-7.597633652e-19
4.38793852e-19
0.0025
-7.124110177e-19
1.89477523e-19
0.0025
-9.167118564e-19
4.04815236e-19
0.0025
-8.366880559e-19
8.27095561e-20
0.0025
-5.869782734e-19
-4.075771218e-19
0.0025
-4.964773479e-19
-5.408095619e-19
0.0025
-5.762993448e-19
-3.435252453e-19
0.0025
-9.889488281e-19
-6.539060733e-19
0.0025
1.118535384e-19
6.386347928e-19
0.0025
-4.705198222e-19
4.190005486e-19
0.0025
-6.8953417e-19
3.958819399e-19
0.0025
-4.832953938e-19
3.702670179e-19
0.0025
-6.844969245e-19
-1.109849936e-19
0.0025
-4.865544872e-19
-1.43623223e-19
0.0025
-4.670992394e-19
-3.975471352e-19
0.0025
-7.874091076e-19
-3.082204381e-19
0.0025
-4.622411534e-19
-6.076281659e-19
0.0025
2.241624272e-19
1.05423862e-19
0.0025
2.401883172e-19
3.834823178e-19
0.0025
-2.736462553e-19
5.440421261e-19
0.0025
-4.215560353e-19
2.368107625e-19
0.0025
-4.099893508e-19
5.525172138e-19
0.0025
-1.83012647e-19
9.078612588e-20
0.0025
-5.882798063e-19
-1.42651416e-19
0.0025
-2.364131817e-19
-4.619721741e-19
0.0025
-2.013894263e-19
-2.367925635e-19
0.0025
-8.388215382e-20
-6.407309222e-19
0.0025
-3.060334923e-19
5.689240488e-19
0.0025
1.643597317e-19
1.750825973e-19
0.0025
1.047765546e-19
2.309277086e-19
0.0025
-5.390710475e-22
6.180969125e-19
0.0025
-3.072040633e-19
2.663221312e-19
0.0025
-2.791299234e-19
1.438772796e-19
0.0025
-2.307358843e-19
-2.449855624e-19
0.0025
-3.848419172e-19
-2.981172327e-19
0.0025
-1.985858314e-19
2.697499171e-20
0.0025
1.562617804e-19
-1.926973429e-19
0.0025
-3.80838999e-21
-3.640353473e-19
0.0025
-2.895986461e-19
2.652758593e-19
0.0025
1.612387043e-19
1.665544563e-19
0.0025
-1.057614337e-19
2.53017121e-19
0.0025
1.280072445e-19
7.932258171e-20
0.0025
1.028648502e-19
2.934473803e-19
0.0025
-1.405012925e-19
1.146075664e-19
0.0025
-1.563606138e-19
-4.450619086e-19
0.0025
-1.951806232e-19
-1.876718986e-19
0.0025
-1.966827734e-19
-1.399652406e-19
0.0025
-2.932307252e-19
-1.574547667e-19
0.0025
-1.486511912e-19
1.188851759e-19
0.0025
1.044218721e-19
-4.527837212e-19
0.0025
-2.954809519e-18
-3.401128152e-18
0.0025
-2.421805189e-18
-2.479696193e-18
0.0025
-2.149471316e-18
-3.307312345e-18
0.0025
-2.503287021e-18
-2.522283813e-18
0.0025
-2.032521751e-18
-1.986423597e-18
0.0025
-9.439962482e-19
-1.833967267e-18
0.0025
-1.806315662e-18
-9.836603257e-19
0.0025
-1.921286191e-18
-1.483473046e-18
0.0025
-1.495147036e-18
-1.334354246e-18
0.0025
-8.613816577e-19
-7.282040322e-19
0.0025
-8.714815412e-19
-7.865901137e-19
0.0025
-1.265733769e-18
-8.766134342e-19
0.0025
-1.49586709e-18
-7.452453796e-19
0.0025
-9.84051625e-19
-9.393520062e-19
0.0025
-1.097387051e-18
-5.830728664e-19
0.0025
-9.995739307e-19
-4.534441893e-19
0.0025
-1.106121166e-18
-7.884383205e-19
0.0025
-9.804888644e-19
-3.847128816e-19
0.0025
-8.369644639e-19
-4.988440943e-19
0.0025
-8.327218816e-19
-4.063551136e-19
0.0025
-5.430114895e-19
-4.26350546e-19
0.0025
-1.458596311e-18
-1.996091066e-19
0.0025
-1.165128484e-18
-3.794807359e-19
0.0025
-6.905903421e-19
1.046327257e-19
0.0025
-7.768028682e-19
-5.52280752e-20
0.0025
-7.154810729e-19
-4.850466745e-19
0.0025
-9.355585123e-19
-5.698158384e-19
0.0025
-5.241500035e-19
-7.818373402e-19
0.0025
-1.373715453e-18
-2.102866113e-19
0.0025
-1.002670476e-18
3.871941197e-20
0.0025
-7.931336439e-19
6.85884076e-20
0.0025
-1.014668081e-18
1.561137918e-19
0.0025
-7.001482646e-19
-4.5360017e-19
0.0025
-6.566711293e-19
-5.920694632e-19
0.0025
-5.25801736e-19
-6.28776548e-19
0.0025
-8.067204342e-19
-5.858306272e-19
0.0025
-5.036107205e-19
3.446522578e-19
0.0025
-9.036189245e-19
8.149563882e-20
0.0025
-9.357917889e-19
1.445236007e-19
0.0025
-7.232112222e-19
-7.010730178e-21
0.0025
-7.567423801e-19
-1.741061108e-19
0.0025
-7.130216303e-19
-3.21601384e-19
0.0025
-4.263406314e-19
-5.310873004e-19
0.0025
-8.368064134e-19
-3.765013699e-19
0.0025
-5.463496417e-19
-6.542490673e-19
0.0025
2.80208646e-19
5.118409474e-19
0.0025
-1.605916204e-19
2.994083352e-19
0.0025
-5.156839707e-19
3.350533882e-19
0.0025
-6.179187619e-19
1.350936776e-19
0.0025
-7.580453515e-19
5.27458568e-20
0.0025
-5.989017549e-19
-2.82675045e-19
0.0025
-6.276679334e-19
-2.736902987e-19
0.0025
-4.053845277e-19
-3.668986197e-19
0.0025
-4.386358642e-19
-3.785668072e-19
0.0025
-3.156651605e-19
-7.975994896e-19
0.0025
-3.466991312e-19
3.891265278e-19
0.0025
2.191686577e-19
2.867701448e-19
0.0025
3.131911285e-19
5.196635821e-19
0.0025
-1.882993904e-19
6.585854427e-19
0.0025
-4.162037286e-19
2.235345005e-19
0.0025
-1.467401029e-19
1.502177533e-19
0.0025
-4.629390522e-19
-1.380274367e-19
0.0025
-5.302130706e-19
-2.775239572e-19
0.0025
-1.276935865e-19
-2.940437326e-19
0.0025
-8.971060728e-20
-1.355372901e-19
0.0025
8.53653276e-22
-7.43697036e-19
0.0025
-1.640415287e-19
3.788752149e-19
0.0025
-1.354465109e-19
3.676677339e-19
0.0025
-1.520443559e-22
4.38287653e-19
0.0025
2.839438347e-19
2.644090785e-19
0.0025
6.659007302e-20
5.110290932e-19
0.0025
-2.809649617e-19
1.054608991e-19
0.0025
-4.08667291e-19
-2.88798822e-19
0.0025
-2.442047316e-19
-1.253859032e-19
0.0025
-2.758317587e-19
-2.140784673e-19
0.0025
-2.657421058e-19
-2.748390825e-19
0.0025
3.882068338e-20
1.05417973e-19
0.0025
4.093144573e-19
-3.568231798e-19
0.0025
1.295101148e-19
8.710026998e-19
0.0025
-1.748077664e-19
-1.396992854e-19
0.0025
2.306043182e-19
2.891153002e-19
0.0025
8.698290626e-20
2.735195044e-19
0.0025
3.297714791e-19
1.863029169e-19
0.0025
-5.47348959e-20
6.677390705e-20
0.0025
-4.553469515e-19
-7.505021086e-20
0.0025
-6.866587043e-20
-4.412977947e-19
0.0025
2.256862291e-20
-3.117500273e-20
0.0025
-3.362095231e-19
1.844204138e-19
0.0025
-5.991767078e-20
-8.871287662e-20
0.0025
8.295918117e-20
3.711446155e-20
0.0025
6.383123065e-19
-5.393075184e-20
0.0025
-2.999966385e-18
-3.219333828e-18
0.0025
-2.825890055e-18
-2.599003443e-18
0.0025
-2.372297687e-18
-3.368317644e-18
0.0025
-2.270212999e-18
-2.394137326e-18
0.0025
-2.002453635e-18
-2.007756561e-18
0.0025
-1.089762723e-18
-2.134426814e-18
0.0025
-2.109543468e-18
-1.527500089e-18
0.0025
-2.014309351e-18
-1.886870443e-18
0.0025
-1.268737504e-18
-1.346756702e-18
0.0025
-6.056194827e-19
-7.108843769e-19
0.0025
-1.077199693e-18
-8.885416125e-19
0.0025
-1.256016265e-18
-7.399837599e-19
0.0025
-1.635064377e-18
-7.863001422e-19
0.0025
-1.068485932e-18
-9.881724323e-19
0.0025
-1.117921901e-18
-6.32607797e-19
0.0025
-8.87517636e-19
-7.553318438e-19
0.0025
-1.124219249e-18
-8.634879975e-19
0.0025
-9.931497971e-19
-6.174467434e-19
0.0025
-1.124686312e-18
-3.817587816e-19
0.0025
-9.704477915e-19
-5.838358339e-19
0.0025
-7.077344487e-19
-5.010925878e-19
0.0025
-1.636744364e-18
-5.67028521e-19
0.0025
-1.032301e-18
-4.258861958e-19
0.0025
-6.607829451e-19
-2.651666289e-19
0.0025
-8.196537122e-19
-3.025182821e-19
0.0025
-8.78851108e-19
-4.07682911e-19
0.0025
-5.951761328e-19
-7.456044012e-20
0.0025
-7.19191081e-19
-6.260714636e-19
0.0025
-1.942398361e-18
-3.288151044e-19
0.0025
-1.211221613e-18
-2.601114687e-19
0.0025
-7.33188734e-19
-2.140541505e-19
0.0025
-1.125871179e-18
-4.560150695e-20
0.0025
-7.754268422e-19
-4.3392693e-19
0.0025
-6.951613206e-19
-4.078812285e-19
0.0025
-6.934327255e-19
-6.113390086e-19
0.0025
-4.084451558e-19
-6.000157656e-19
0.0025
-1.20605292e-18
4.329905204e-19
0.0025
-1.045774608e-18
-2.151383918e-19
0.0025
-9.190190628e-19
1.020760055e-22
0.0025
-1.071016836e-18
-1.35493472e-19
0.0025
-9.887376151e-19
-3.212340577e-19
0.0025
-7.639167128e-19
-6.146091213e-19
0.0025
-5.126525894e-19
-5.414740156e-19
0.0025
-7.621231743e-19
-5.009658924e-19
0.0025
-4.107440982e-19
-6.612084669e-19
0.0025
-4.554964378e-19
4.455501372e-19
0.0025
-6.751388425e-19
2.684566694e-19
0.0025
-8.516365492e-19
1.151435897e-19
0.0025
-7.02196276e-19
1.009599488e-20
0.0025
-9.349882434e-19
-4.239660408e-19
0.0025
-1.098239709e-18
-5.109105761e-19
0.0025
-5.947042343e-19
-2.925853619e-19
0.0025
-4.151414045e-19
-4.734439876e-19
0.0025
-5.299118577e-19
-5.127367336e-19
0.0025
-5.147244053e-19
-7.714878422e-19
0.0025
-1.471177954e-19
3.21000094e-19
0.0025
5.302919678e-20
3.688917481e-19
0.0025
1.758418233e-21
4.740181402e-19
0.0025
-5.432889369e-19
2.695278341e-19
0.0025
-7.009355428e-19
4.226542545e-20
0.0025
-4.097033204e-19
-3.053563961e-21
0.0025
-4.743222433e-19
-1.151244045e-19
0.0025
-3.830904165e-19
-2.543406957e-19
0.0025
-1.931904647e-19
-2.842757526e-19
0.0025
-4.182094243e-19
-4.899510447e-19
0.0025
-3.964120394e-19
-1.063981888e-18
0.0025
-2.006310333e-19
4.096044496e-19
0.0025
-2.690268726e-19
2.016441813e-19
0.0025
2.147711727e-19
4.143763823e-19
0.0025
1.734043792e-19
4.349056042e-19
0.0025
-2.591362225e-19
4.383567262e-19
0.0025
-3.393734569e-19
1.191795531e-19
0.0025
-4.632747733e-19
-2.136939397e-19
0.0025
-3.245167208e-19
-2.809771748e-20
0.0025
-3.275472473e-19
-1.729520274e-19
0.0025
-5.531970943e-20
-2.292049331e-19
0.0025
2.890802724e-20
-9.952881671e-20
0.0025
6.507067369e-19
-3.236678065e-19
0.0025
3.287690013e-19
8.680540457e-19
0.0025
-2.24005756e-19
1.769642017e-19
0.0025
1.302812388e-19
3.983175718e-19
0.0025
5.071639137e-20
3.531500235e-19
0.0025
3.012315551e-19
1.490560425e-19
0.0025
-2.365204222e-19
4.876932545e-20
0.0025
-6.119078734e-19
-3.619968822e-20
0.0025
-2.253866903e-19
-3.332933095e-19
0.0025
-1.005739985e-19
-8.565516315e-22
0.0025
-3.878891523e-19
1.521127138e-19
0.0025
4.853380289e-21
-1.832635275e-19
0.0025
2.216555809e-19
-1.281722745e-19
0.0025
6.499338581e-19
-8.15561841e-20
0.0025
2.964325413e-19
7.243296128e-19
0.0025
-2.446054219e-19
4.631874252e-19
0.0025
5.227077571e-19
-8.006543509e-20
0.0025
-5.942692761e-20
2.61282342e-19
0.0025
4.750205982e-20
-8.754772323e-20
0.0025
-1.522881479e-19
-1.60688146e-19
0.0025
-2.648792585e-19
-1.243666585e-19
0.0025
-1.643460975e-19
1.224909625e-19
0.0025
1.510885377e-19
-1.167933798e-19
0.0025
1.55894926e-20
9.864592905e-20
0.0025
-1.386471036e-19
4.109588959e-19
0.0025
1.259602776e-19
-2.47263566e-20
0.0025
2.502663479e-19
-3.90750141e-19
0.0025
2.435645092e-19
2.926220413e-19
0.0025
-1.850392691e-18
-2.093833737e-18
0.0025
-2.718384439e-18
-2.471441589e-18
0.0025
-2.28486083e-18
-3.119760899e-18
0.0025
-2.466909917e-18
-2.194004193e-18
0.0025
-2.148043045e-18
-2.292284888e-18
0.0025
-1.454066903e-18
-2.733726275e-18
0.0025
-1.961143084e-18
-1.72815954e-18
0.0025
-2.000539842e-18
-2.032317372e-18
0.0025
-1.439201446e-18
-1.330897704e-18
0.0025
-6.038439892e-19
-8.460532144e-19
0.0025
-1.691545358e-18
-1.496205521e-18
0.0025
-1.349560084e-18
-9.724140231e-19
0.0025
-1.531242084e-18
-1.185854236e-18
0.0025
-8.643102211e-19
-7.748808967e-19
0.0025
-7.975255568e-19
-1.411196169e-19
0.0025
-7.095924149e-19
-6.164852798e-19
0.0025
-1.003697483e-18
-7.331528188e-19
0.0025
-1.089883277e-18
-5.407682678e-19
0.0025
-1.284825675e-18
-5.140703513e-19
0.0025
-1.085338537e-18
-7.859273222e-19
0.0025
-8.595950979e-19
-6.151664195e-19
0.0025
-1.236461087e-18
-7.553435991e-19
0.0025
-9.747898895e-19
-6.290616724e-19
0.0025
-7.225736699e-19
-5.490426624e-19
0.0025
-1.040034485e-18
-5.625654771e-19
0.0025
-1.149919096e-18
-4.099739263e-19
0.0025
-6.467972086e-19
-1.852514891e-19
0.0025
-9.602305669e-19
-4.55394071e-19
0.0025
-2.323554588e-18
-2.828738306e-19
0.0025
-1.22668614e-18
-7.052580611e-19
0.0025
-6.733715742e-19
-3.794248928e-19
0.0025
-1.051663314e-18
-2.473074954e-19
0.0025
-8.239341396e-19
-4.87321821e-19
0.0025
-8.045780104e-19
-4.545327724e-19
0.0025
-9.941775422e-19
-3.560075028e-19
0.0025
-2.604794282e-19
-5.682545568e-19
0.0025
-1.355377288e-18
7.529891469e-19
0.0025
-1.082457802e-18
-1.975731269e-19
0.0025
-8.001616903e-19
-1.503471342e-19
0.0025
-1.222270941e-18
-1.775331117e-19
0.0025
-9.819364832e-19
-4.955468776e-19
0.0025
-6.774202919e-19
-5.117605268e-19
0.0025
-7.684424264e-19
-3.981791469e-19
0.0025
-6.538132922e-19
-7.759196943e-19
0.0025
-2.925221762e-19
-6.39937379e-19
0.0025
-1.008202861e-18
3.34991609e-19
0.0025
-8.657416574e-19
4.769981666e-19
0.0025
-8.999582457e-19
-5.522931823e-20
0.0025
-8.314010744e-19
-5.261414459e-20
0.0025
-1.021604148e-18
-4.951494691e-19
0.0025
-1.174251791e-18
-7.042474058e-19
0.0025
-6.951611222e-19
-6.108352813e-19
0.0025
-6.677288812e-19
-5.17127132e-19
0.0025
-5.214177252e-19
-4.956935925e-19
0.0025
-7.151102196e-19
-6.933040534e-19
0.0025
-4.751816712e-19
3.35808885e-19
0.0025
-5.8102107e-19
2.833278086e-19
0.0025
-4.799173035e-19
5.396707377e-19
0.0025
-6.443702297e-19
1.679795474e-20
0.0025
-8.443965125e-19
-2.126018112e-19
0.0025
-8.110282732e-19
-1.223757918e-20
0.0025
-5.63284003e-19
-2.341424757e-19
0.0025
-3.65629689e-19
-3.578286477e-19
0.0025
-1.801706381e-19
-4.045657286e-19
0.0025
-5.82399066e-19
-6.532982669e-19
0.0025
-4.585875643e-19
-8.035905327e-19
0.0025
-2.934788967e-19
4.006928382e-19
0.0025
-1.843531311e-19
1.012432175e-19
0.0025
7.19878097e-20
3.795552729e-19
0.0025
-2.071254745e-19
4.423815347e-19
0.0025
-3.848482634e-19
2.275704698e-19
0.0025
-3.253750797e-19
1.8658931e-19
0.0025
-3.787088884e-19
-8.314094934e-20
0.0025
-3.077410679e-19
-1.257442334e-20
0.0025
-2.329792782e-19
-1.163254231e-19
0.0025
-2.942591055e-19
-2.869663302e-19
0.0025
-1.798555415e-19
-3.892883451e-19
0.0025
4.565534132e-19
-4.921111784e-19
0.0025
2.129503581e-19
6.572129289e-19
0.0025
-2.265768551e-19
3.2327314e-19
0.0025
5.979556934e-20
3.421210553e-19
0.0025
1.808528882e-20
1.601110931e-19
0.0025
3.528092782e-20
2.274148883e-19
0.0025
-4.813724754e-19
2.047122256e-20
0.0025
-5.444952627e-19
-3.358157881e-20
0.0025
-1.864594717e-19
-1.297584837e-19
0.0025
-3.373910732e-19
-1.601165282e-20
0.0025
-2.043369596e-19
-6.089761737e-20
0.0025
1.293090948e-20
-1.750023004e-19
0.0025
2.423167519e-19
-2.079048132e-19
0.0025
5.279771599e-19
-9.295195387e-20
0.0025
3.098693142e-19
6.407035596e-19
0.0025
6.285704177e-20
6.014629374e-19
0.0025
4.802751989e-19
2.640529911e-19
0.0025
-3.638190877e-19
2.917389997e-19
0.0025
1.871928301e-20
-6.347098816e-20
0.0025
-1.455312163e-19
-1.588866536e-19
0.0025
-3.511362693e-19
-7.00426822e-20
0.0025
-3.363700912e-19
2.367728439e-19
0.0025
5.431067827e-22
-1.329668404e-19
0.0025
-7.783997073e-20
6.047098532e-20
0.0025
-1.965808755e-19
3.21966562e-19
0.0025
2.172023451e-19
-1.077879176e-19
0.0025
4.016177374e-19
-4.322906591e-19
0.0025
3.266933956e-19
1.892253033e-20
0.0025
-7.9210333e-20
1.881939007e-19
0.0025
-5.415115799e-20
8.703968779e-19
0.0025
3.278993572e-19
4.989912647e-20
0.0025
2.193028409e-19
3.696763926e-20
0.0025
-9.979870165e-22
-9.147834856e-20
0.0025
-1.527241396e-19
-1.570319065e-19
0.0025
2.865294491e-20
-1.243444029e-19
0.0025
-1.928706078e-19
-1.670544858e-19
0.0025
-2.087281265e-19
9.089433717e-20
0.0025
1.674015066e-19
1.247671369e-19
0.0025
-2.013955327e-20
2.801888607e-19
0.0025
-2.462978906e-19
1.304506874e-21
0.0025
9.022300284e-20
-2.067976968e-19
0.0025
1.233551939e-20
-2.799518149e-19
0.0025
-1.232846074e-19
2.643895399e-19
0.0025
-6.39086457e-19
-8.041951146e-19
0.0025
-1.626382641e-18
-1.93802746e-18
0.0025
-1.661063493e-18
-2.282893876e-18
0.0025
-2.393884004e-18
-2.282267034e-18
0.0025
-1.944329211e-18
-2.218779387e-18
0.0025
-1.916945178e-18
-3.014923806e-18
0.0025
-1.713886989e-18
-1.528120191e-18
0.0025
-2.023379689e-18
-1.986340437e-18
0.0025
-1.70805164e-18
-1.840990949e-18
0.0025
-8.965312325e-19
-1.659255554e-18
0.0025
-1.731762418e-18
-1.737871165e-18
0.0025
-1.393562363e-18
-1.335937704e-18
0.0025
-1.542679144e-18
-1.455925351e-18
0.0025
-9.803407794e-19
-7.591187399e-19
0.0025
-7.363251945e-19
-9.298254283e-20
0.0025
-1.019584763e-18
-6.743537813e-19
0.0025
-8.756622574e-19
-9.510169711e-19
0.0025
-1.263633571e-18
-6.534424656e-19
0.0025
-1.230579602e-18
-9.19971441e-19
0.0025
-1.049214287e-18
-5.979528976e-19
0.0025
-8.327863436e-19
-1.963095684e-20
0.0025
-6.846056566e-19
-8.059828305e-19
0.0025
-9.522471672e-19
-5.093920561e-19
0.0025
-8.336257246e-19
-6.748874044e-19
0.0025
-1.093189237e-18
-6.200709153e-19
0.0025
-1.374609344e-18
-6.732810543e-19
0.0025
-8.659333219e-19
-6.343159994e-19
0.0025
-1.193750723e-18
-3.61326251e-19
0.0025
-1.928749488e-18
-6.223875176e-19
0.0025
-1.112539853e-18
-7.53957805e-19
0.0025
-6.825483803e-19
-5.609717932e-19
0.0025
-9.46820669e-19
-3.887545788e-19
0.0025
-9.927289336e-19
-5.849220473e-19
0.0025
-1.102052655e-18
-6.109867669e-19
0.0025
-1.160642532e-18
-3.696842744e-19
0.0025
-4.981397818e-19
-4.075429615e-19
0.0025
-1.862829358e-18
6.650501352e-19
0.0025
-1.200227638e-18
-3.622131152e-19
0.0025
-7.751215372e-19
-4.179945824e-19
0.0025
-1.248069143e-18
-4.623381072e-19
0.0025
-8.390417824e-19
-5.162555717e-19
0.0025
-8.757936262e-19
-4.863880045e-19
0.0025