/*--------------------------------*- C++ -*----------------------------------*\
| =========                 |                                                 |
| \\      /  F ield         | OpenFOAM: The Open Source CFD Toolbox           |
|  \\    /   O peration     | Version:  2212                                  |
|   \\  /    A nd           | Website:  www.openfoam.com                      |
|    \\/     M anipulation  |                                                 |
\*---------------------------------------------------------------------------*/
FoamFile
{
    version     2.0;
    format      ascii;
    arch        "LSB;label=32;scalar=64";
    class       volVectorField;
    location    "1.6";
    object      U;
}
// * * * * * * * * * * * * * * * * * * * * * * * * * * * * * * * * * * * * * //

dimensions      [0 1 -1 0 0 0 0];

internalField   nonuniform List<vector> 
42875
(
(1 -1.176306821e-16 2.730936276e-16)
(1 -4.677168853e-16 2.765944176e-16)
(1 -1.306988368e-16 1.641626807e-16)
(1 -2.425149046e-16 4.329903564e-17)
(1 -7.290022149e-16 1.155310696e-16)
(1 -6.241281133e-16 2.864026195e-16)
(1 -4.485920206e-16 1.472339426e-17)
(1 -4.843817369e-17 1.932710589e-16)
(1 -2.287371822e-16 1.665452994e-16)
(1 2.298032317e-18 -1.962192225e-16)
(1 -5.458783018e-16 1.225280284e-16)
(1 -9.641698584e-16 3.685278836e-16)
(1 -4.487448529e-16 -3.896930054e-17)
(1 -3.550529113e-16 3.941342636e-16)
(1 -4.733738546e-16 2.286316573e-16)
(1 -2.358200247e-16 -1.417716648e-16)
(1 -2.521996855e-16 2.247812254e-16)
(1 -3.632801187e-17 1.459675361e-16)
(1 -2.156651121e-17 5.236121067e-17)
(1 5.361105017e-17 3.180766165e-17)
(1 -3.397949228e-16 2.646539448e-16)
(1 -7.326956163e-16 2.934061016e-16)
(1 -3.592500206e-16 1.507277457e-16)
(1 -5.416823829e-16 3.944654478e-16)
(1 -6.816492172e-16 1.613829176e-16)
(1 -4.995995554e-16 -1.592720296e-16)
(1 -2.701357544e-16 3.206394897e-16)
(1 -3.102295903e-16 2.629584429e-16)
(1 -3.65669335e-16 4.420522161e-17)
(1 -3.064212018e-16 -1.728322616e-17)
(1 -2.403771806e-16 3.658511304e-16)
(1 -1.586217432e-16 2.474120168e-16)
(1 -1.450541127e-17 5.641673531e-17)
(1 -1.001607386e-18 1.008723244e-16)
(1 1.408341464e-16 -1.855285316e-16)
(1 -3.697303292e-16 2.000094683e-16)
(1 -1.884543685e-16 2.43094455e-16)
(1 -3.729485461e-16 2.231896459e-16)
(1 -4.914542461e-16 2.764949644e-16)
(1 -5.999626121e-16 1.236752676e-16)
(1 -5.525664484e-16 -1.01146273e-17)
(1 -3.834316156e-16 3.370193986e-16)
(1 -5.785519774e-16 2.775995112e-16)
(1 -6.279471349e-16 -1.476814784e-16)
(1 -4.173820372e-16 -1.792637765e-16)
(1 -2.935527571e-16 2.686213798e-16)
(1 -3.834017919e-16 3.299769869e-16)
(1 -2.128534864e-16 2.913386888e-17)
(1 -3.027109032e-16 1.919917503e-16)
(1 -2.003614481e-17 -1.364867324e-16)
(1 2.392191655e-16 1.635099336e-16)
(1 -2.905012096e-16 3.710670624e-16)
(1 -7.841072185e-17 8.715988232e-17)
(1 -3.420729e-17 2.361913656e-16)
(1 1.595216484e-16 1.905782295e-16)
(1 3.870671602e-16 8.044380443e-17)
(1 -6.525710465e-16 -5.474649355e-16)
(1 -4.292438208e-17 1.320978752e-16)
(1 -4.480266576e-16 4.192032047e-17)
(1 -4.140586315e-16 1.314092475e-16)
(1 -3.579372183e-16 8.448540246e-17)
(1 -4.928450666e-16 1.873187462e-16)
(1 -4.137548134e-16 2.692561516e-16)
(1 -4.928235516e-16 2.404922429e-16)
(1 -6.054938835e-16 -8.519776849e-17)
(1 -4.36579141e-16 -1.960570546e-16)
(1 -4.119289664e-16 3.147811304e-16)
(1 -4.218515169e-16 3.176804944e-16)
(1 -3.764310742e-16 4.858929634e-17)
(1 -4.50757925e-16 -4.329459844e-17)
(1 -3.263206127e-16 -1.645236063e-16)
(1 -1.681241594e-16 3.004035455e-16)
(1 -2.977831034e-16 3.122223326e-16)
(1 -1.818176995e-16 2.023943259e-16)
(1 -1.241755921e-16 3.113304824e-16)
(1 -3.764624165e-17 1.043076644e-16)
(1 -4.381174011e-17 -7.585648027e-17)
(1 4.771977787e-17 1.363507735e-16)
(1 4.821739472e-17 2.410875488e-16)
(1 -2.494097884e-16 2.995271336e-16)
(1 1.037235317e-16 4.61947779e-17)
(1 -9.126042323e-17 2.534493021e-16)
(1 3.695025997e-16 9.698507307e-17)
(1 1.457910691e-16 1.610391632e-16)
(1 -8.250011001e-16 -1.091813979e-15)
(1 -3.615327621e-16 -1.486805814e-16)
(1 -3.034226297e-16 -5.935302018e-16)
(1 -3.41845881e-16 -1.983792362e-16)
(1 -3.538727386e-16 4.637689502e-17)
(1 -3.715846605e-16 1.706678532e-16)
(1 -5.015675293e-16 2.271868037e-16)
(1 -4.138188824e-16 -7.85113858e-17)
(1 -5.453444649e-16 -1.103314699e-17)
(1 -5.742895852e-16 -5.462369628e-17)
(1 -4.47425782e-16 3.561379764e-16)
(1 -3.081881612e-16 2.792290475e-16)
(1 -3.296528838e-16 1.113033579e-16)
(1 -4.548910248e-16 -1.931996755e-16)
(1 -5.289942995e-16 -1.465084154e-16)
(1 -3.747900617e-16 3.314930716e-16)
(1 -4.03383233e-16 3.157385553e-16)
(1 -3.191162575e-16 1.819841552e-16)
(1 -2.261264076e-16 1.326677485e-16)
(1 -2.609853361e-16 -1.326895491e-16)
(1 -3.539327547e-16 -8.428920732e-17)
(1 4.900795298e-19 4.097299072e-16)
(1 -3.116105407e-17 3.450444171e-16)
(1 -2.788704698e-16 2.704916672e-16)
(1 -1.519941996e-16 1.799096861e-16)
(1 -2.237628213e-16 1.418143558e-16)
(1 -3.99029007e-17 -2.808217586e-17)
(1 -2.08566156e-17 1.545272911e-17)
(1 -1.265953443e-16 1.703519565e-16)
(1 6.493585548e-17 7.343590114e-17)
(1 3.506130521e-17 3.264950434e-16)
(1 -5.049523576e-17 1.959074429e-16)
(1 -1.267408178e-16 2.095832383e-16)
(1 -1.660270583e-17 4.419542686e-17)
(1 1.168056468e-16 -1.484310352e-16)
(1 7.674912675e-17 -1.497382232e-16)
(1 -7.157709098e-16 -1.005583278e-15)
(1 -7.999271157e-16 -5.171004547e-16)
(1 -2.857492047e-16 -1.068983803e-15)
(1 -5.177801655e-16 -3.876562026e-16)
(1 -2.077592991e-16 -2.162589101e-16)
(1 -2.816653742e-16 -1.179673676e-16)
(1 -6.880510313e-16 1.609877338e-16)
(1 -2.92863377e-16 -3.768574118e-16)
(1 -4.324064544e-16 9.045526911e-17)
(1 -5.044181131e-16 8.610597977e-18)
(1 -2.227852562e-16 1.364774692e-16)
(1 -4.718647567e-16 2.025068722e-16)
(1 -3.058115121e-16 -8.649023539e-17)
(1 -6.365841324e-16 -7.486251888e-17)
(1 -5.30514828e-16 -2.067882662e-16)
(1 -3.868618156e-16 2.606283658e-16)
(1 -4.569037614e-16 3.220058596e-16)
(1 -3.30261291e-16 2.700114038e-16)
(1 -1.464662131e-16 -5.272144446e-17)
(1 -4.838034871e-16 -2.617048398e-16)
(1 -5.09438953e-16 -2.33244916e-16)
(1 -7.537824017e-17 4.419099554e-16)
(1 -2.532522051e-16 3.079936369e-16)
(1 -4.067104335e-16 1.491692876e-16)
(1 -3.11526754e-16 1.302767773e-16)
(1 -1.871757354e-16 -6.839965236e-17)
(1 -2.986113491e-16 7.360824146e-17)
(1 -1.795983896e-16 -1.330098599e-16)
(1 -7.526507638e-18 2.12852982e-16)
(1 -9.626490293e-17 4.836621228e-16)
(1 -2.478687625e-17 2.39722717e-16)
(1 -2.419278632e-16 1.706586667e-16)
(1 -3.153126789e-16 1.18311961e-16)
(1 -8.920655301e-17 -2.747539305e-17)
(1 -1.12630066e-17 -1.836386626e-16)
(1 -2.275884401e-16 -2.370372195e-16)
(1 4.800464522e-17 3.203586514e-16)
(1 6.116440531e-17 2.065058885e-16)
(1 3.50028245e-17 1.010977046e-16)
(1 -1.260644021e-16 1.914184254e-16)
(1 -6.977602939e-17 2.569212187e-17)
(1 -1.519238234e-16 8.896257341e-17)
(1 -1.130665207e-16 -1.780272306e-16)
(1 2.854977458e-17 5.833213412e-17)
(1 4.104689732e-16 -1.010982785e-16)
(1 -8.378957228e-16 -9.914800705e-16)
(1 -8.537142643e-16 -6.836664046e-16)
(1 -3.435554131e-16 -9.603517038e-16)
(1 -7.478140067e-16 -4.696049368e-16)
(1 -2.231506864e-16 -6.006088308e-16)
(1 -3.526372681e-16 -3.182917856e-16)
(1 -7.266260984e-16 3.992817429e-17)
(1 -3.344696156e-16 -4.702040235e-16)
(1 -2.740282007e-16 -8.731265877e-17)
(1 -3.002316971e-16 -6.687161065e-17)
(1 -1.691671357e-16 5.627774041e-17)
(1 -4.620798807e-16 4.327270237e-17)
(1 -3.800894145e-16 -7.051199211e-17)
(1 -5.920011902e-16 6.265132232e-17)
(1 -3.372950113e-16 -2.982600997e-16)
(1 -3.935241607e-16 4.865767067e-17)
(1 -4.000048917e-16 1.383793526e-16)
(1 -3.238172049e-16 9.172900606e-17)
(1 -3.190814862e-16 -1.365663447e-16)
(1 -6.2169441e-16 -1.935111919e-16)
(1 -5.049332405e-16 -5.128356654e-16)
(1 -1.995863306e-16 3.839688638e-16)
(1 -3.760623415e-16 2.278961717e-16)
(1 -4.933121148e-16 6.674296344e-17)
(1 -3.420453517e-16 4.465502245e-17)
(1 -8.251238886e-17 -1.948677281e-16)
(1 -4.972151424e-16 -2.150161161e-17)
(1 -2.363935031e-16 -1.762481137e-16)
(1 -2.966338769e-17 2.308265307e-16)
(1 -1.63103902e-16 4.631120489e-16)
(1 -2.477990187e-16 2.043614147e-16)
(1 -4.016081419e-16 1.178042639e-16)
(1 -3.278663041e-16 3.057530639e-17)
(1 -6.743044915e-17 2.37418005e-17)
(1 -1.771305252e-16 -2.096511072e-17)
(1 -2.426796058e-16 -3.001536034e-16)
(1 2.534692286e-16 2.972021439e-16)
(1 -1.023289317e-16 1.728649576e-16)
(1 -1.535002163e-16 2.259263761e-16)
(1 -9.684913428e-17 2.090993846e-16)
(1 -2.410317355e-16 6.820545287e-17)
(1 -1.704303442e-16 1.192851829e-16)
(1 -6.797964812e-17 -4.683764719e-17)
(1 -1.036887928e-16 -9.485411522e-17)
(1 1.222163702e-16 -2.716607159e-16)
(1 2.72552027e-17 1.228123224e-16)
(1 2.188583945e-17 3.262176747e-16)
(1 4.344143942e-17 -8.865676001e-18)
(1 -2.78833195e-16 7.059548565e-17)
(1 -6.686392557e-17 8.994273148e-17)
(1 -1.312321906e-16 3.862630786e-17)
(1 -1.338602219e-16 -6.546525361e-17)
(1 3.496423758e-17 -2.104381061e-16)
(1 5.88906279e-17 1.916128542e-17)
(1 1.967482608e-16 1.475050077e-16)
(1 -1.144793591e-15 -1.292149148e-15)
(1 -8.531592647e-16 -8.386060412e-16)
(1 -6.563306277e-16 -1.157652631e-15)
(1 -1.083669438e-15 -6.183016286e-16)
(1 -5.128859776e-16 -8.365788288e-16)
(1 -4.900197268e-16 -4.772773001e-16)
(1 -6.360382206e-16 -6.889149938e-17)
(1 -3.55909167e-16 -5.085693364e-16)
(1 -2.715754535e-16 -2.874739029e-16)
(1 -2.928914111e-16 -2.495488012e-16)
(1 -3.073450496e-16 -1.031127303e-16)
(1 -5.146152982e-16 -1.653779774e-16)
(1 -4.410446563e-16 -2.199337438e-16)
(1 -3.429425228e-16 -8.457683727e-17)
(1 -2.768272319e-16 -1.112129657e-16)
(1 -4.156224932e-16 5.011356646e-18)
(1 -3.346562436e-16 -9.958797747e-17)
(1 -4.621710749e-16 -5.539901697e-17)
(1 -3.964773394e-16 -4.800193508e-17)
(1 -5.209042253e-16 -1.253791721e-16)
(1 -3.240909249e-16 -5.861200836e-16)
(1 -3.542064402e-16 1.907281742e-16)
(1 -3.828179285e-16 4.830616286e-18)
(1 -4.283103586e-16 -3.27321432e-18)
(1 -4.053975039e-16 2.693268568e-17)
(1 -1.902683539e-16 -1.25710285e-16)
(1 -5.474388096e-16 -2.576647151e-16)
(1 -2.555587802e-16 -3.005553512e-16)
(1 -2.461554984e-16 3.404760452e-16)
(1 -1.025408211e-16 3.037143941e-16)
(1 -4.399082316e-16 2.461766481e-16)
(1 -4.948511399e-16 7.533164762e-17)
(1 -1.943483563e-16 -1.679704245e-16)
(1 -4.554005797e-17 -4.699441728e-17)
(1 -2.346846243e-16 5.965425965e-17)
(1 -2.899806249e-16 -1.934807408e-16)
(1 1.952525907e-16 3.716601334e-16)
(1 -9.897713189e-17 2.04365299e-16)
(1 -1.805233362e-16 3.071738323e-16)
(1 -1.103597582e-16 2.697249097e-16)
(1 -2.775892587e-16 3.478684741e-17)
(1 -2.225159965e-16 1.797479176e-16)
(1 -8.699234095e-17 -3.831136226e-17)
(1 -2.037368401e-16 -2.257820781e-16)
(1 -7.675946784e-17 -3.187092797e-16)
(1 9.775122392e-17 -6.012190555e-18)
(1 4.306075313e-17 2.073273113e-16)
(1 -2.34917891e-16 9.870151796e-17)
(1 -2.178726715e-16 6.669319612e-17)
(1 -1.684882638e-16 3.156429106e-16)
(1 -8.960085003e-17 1.031839625e-16)
(1 -1.617593329e-16 2.428546843e-17)
(1 1.189281328e-16 -1.872902261e-16)
(1 8.507787838e-18 -1.848545068e-17)
(1 4.817656479e-17 -1.160964855e-16)
(1 9.722070802e-17 2.779037576e-16)
(1 -4.180712371e-17 4.91677585e-17)
(1 -9.790731422e-17 -6.836854708e-17)
(1 -8.632289896e-17 1.398043362e-17)
(1 -1.394051889e-16 1.723501913e-17)
(1 -1.28012586e-16 1.972546328e-16)
(1 4.290198638e-17 -5.690630866e-17)
(1 -4.644661302e-17 -1.120772258e-16)
(1 -2.745322298e-16 6.30584325e-17)
(1 1.900932871e-16 -2.815746391e-16)
(1 -4.85047372e-17 -3.704441742e-17)
(1 -1.170928592e-15 -1.259624309e-15)
(1 -8.492309005e-16 -8.935899094e-16)
(1 -7.15088163e-16 -1.456902151e-15)
(1 -1.233809313e-15 -9.373716009e-16)
(1 -8.893490463e-16 -9.252883382e-16)
(1 -4.678853574e-16 -8.326569539e-16)
(1 -8.109374373e-16 -1.109495582e-16)
(1 -6.211308595e-16 -6.473359861e-16)
(1 -5.346924353e-16 -5.234823456e-16)
(1 -3.392291518e-16 -3.236237113e-16)
(1 -4.040797292e-16 -2.342347621e-16)
(1 -5.013820174e-16 -4.106629107e-16)
(1 -5.259785685e-16 -3.305931046e-16)
(1 -2.61365132e-16 -2.581507354e-16)
(1 -3.401842193e-16 -2.308471968e-16)
(1 -5.294592501e-16 3.160574116e-17)
(1 -3.251156097e-16 -3.319232275e-16)
(1 -5.69686268e-16 -1.44590327e-16)
(1 -3.804610512e-16 -2.02806393e-16)
(1 -4.187920821e-16 -1.556758134e-16)
(1 -3.41020677e-16 -3.655916639e-16)
(1 -3.479949925e-16 -5.624190976e-17)
(1 -5.197623662e-16 -7.816061514e-17)
(1 -3.127253546e-16 2.840630081e-18)
(1 -3.803348077e-16 1.264578871e-16)
(1 -3.148594624e-16 -1.804471239e-16)
(1 -4.523829963e-16 -4.333001843e-16)
(1 -1.669720668e-16 -3.640080516e-16)
(1 -3.983910728e-16 2.733479426e-16)
(1 -1.799286277e-16 1.02179399e-16)
(1 -4.343997646e-16 1.409068658e-16)
(1 -3.489234627e-16 -6.924975743e-18)
(1 -1.996593834e-16 -1.213365476e-16)
(1 -2.338083682e-16 -1.879473958e-16)
(1 -3.104527641e-16 -1.609861108e-16)
(1 -3.355491136e-16 -1.945334977e-16)
(1 -9.588509329e-17 3.807568727e-16)
(1 -2.161026647e-16 2.311425909e-16)
(1 -2.103766123e-16 2.030430115e-16)
(1 -2.342444862e-16 2.862073296e-16)
(1 -2.695943085e-16 5.475620033e-17)
(1 -1.115385111e-16 -2.806943891e-17)
(1 -9.402547135e-17 -1.225028159e-16)
(1 -4.373920362e-16 -9.71558809e-17)
(1 -1.385347439e-16 -2.92506208e-16)
(1 2.798746425e-16 9.727435036e-17)
(1 8.287954992e-17 1.954083812e-16)
(1 -3.10697112e-16 2.479914722e-16)
(1 -1.265737102e-16 1.681310151e-16)
(1 -1.986870796e-16 2.673002474e-16)
(1 -1.52549826e-16 1.265584451e-16)
(1 -2.435792222e-16 3.617093235e-17)
(1 1.265313953e-17 -2.333643499e-16)
(1 -1.263409682e-16 -1.098346178e-16)
(1 -1.290744898e-17 -2.407811311e-16)
(1 -1.454347198e-16 2.973707818e-16)
(1 1.068768522e-16 4.116322565e-17)
(1 1.045838972e-16 1.62976853e-16)
(1 -1.615250161e-16 2.438007856e-16)
(1 -1.681086485e-16 8.882196398e-17)
(1 -8.107916302e-17 1.988412654e-16)
(1 -1.4622565e-16 -6.644210745e-17)
(1 -1.880826894e-16 -9.898276409e-17)
(1 -7.335851795e-17 2.173615749e-17)
(1 1.839301374e-16 -1.771564624e-16)
(1 2.417404134e-17 -1.536545442e-16)
(1 -1.397775148e-16 2.394316215e-16)
(1 1.91993206e-16 1.178203202e-16)
(1 -1.64505686e-16 2.349743976e-17)
(1 2.467959922e-17 -9.106913651e-17)
(1 -1.031592886e-16 2.628812384e-16)
(1 -1.279867993e-16 1.470174329e-16)
(1 6.366564086e-18 -1.148865242e-16)
(1 -1.709205497e-16 -1.488450988e-16)
(1 -4.787989656e-17 -2.042786512e-16)
(1 -1.707131563e-16 -2.558703465e-17)
(1 -1.154066223e-16 -1.093975801e-16)
(1 1.307808445e-16 -3.176861436e-16)
(1 -1.216270806e-15 -1.296293279e-15)
(1 -9.992403508e-16 -1.039020366e-15)
(1 -9.132259806e-16 -1.523381768e-15)
(1 -8.88784625e-16 -9.91053134e-16)
(1 -7.120296846e-16 -8.587370975e-16)
(1 -3.032711306e-16 -9.846253379e-16)
(1 -1.077653332e-15 -4.025915721e-16)
(1 -9.047780393e-16 -8.125449164e-16)
(1 -4.932589479e-16 -6.183442687e-16)
(1 -3.101485851e-16 -3.486357472e-16)
(1 -2.94558268e-16 -2.4192362e-16)
(1 -5.783546529e-16 -3.944304394e-16)
(1 -6.654123878e-16 -4.039409054e-16)
(1 -3.882218618e-16 -4.372223511e-16)
(1 -5.578502414e-16 -3.086133657e-16)
(1 -4.706275368e-16 -1.692248975e-16)
(1 -4.849007303e-16 -5.089139095e-16)
(1 -6.128631841e-16 -2.621165928e-16)
(1 -3.458048605e-16 -3.026823358e-16)
(1 -3.103865122e-16 -2.394144262e-16)
(1 -2.727935057e-16 -1.620641033e-16)
(1 -3.480548378e-16 -3.902168541e-17)
(1 -4.608045549e-16 -1.674653315e-16)
(1 -2.706278198e-16 -9.59776588e-18)
(1 -2.982826891e-16 6.014152245e-17)
(1 -3.305983103e-16 -2.271053057e-16)
(1 -4.728643189e-16 -2.516502324e-16)
(1 -1.555984551e-16 -3.830256904e-16)
(1 -6.036101634e-16 -7.872377834e-17)
(1 -4.065893189e-16 -1.538101367e-17)
(1 -3.224226814e-16 -2.099600687e-18)
(1 -3.313894334e-16 1.108945192e-16)
(1 -2.659719687e-16 -1.065906985e-16)
(1 -3.816148106e-16 -3.178092957e-16)
(1 -2.516223112e-16 -3.891804171e-16)
(1 -3.086315256e-16 -2.594620635e-16)
(1 -2.641181467e-16 1.738543509e-16)
(1 -4.788797299e-16 1.591303998e-17)
(1 -3.328616877e-16 1.043994972e-17)
(1 -3.481618818e-16 1.55976033e-16)
(1 -3.046448634e-16 6.151611441e-17)
(1 -2.157255234e-16 -1.844104741e-16)
(1 -1.206421441e-16 -3.1548881e-16)
(1 -5.15910682e-16 -1.605400691e-16)
(1 -1.88716834e-16 -2.904255473e-16)
(1 1.274607843e-16 2.77846487e-16)
(1 -1.53627771e-16 1.31017241e-16)
(1 -3.679600876e-16 1.653015209e-16)
(1 -2.094665896e-16 1.525702629e-16)
(1 -3.299384438e-16 3.808454206e-18)
(1 -3.26344714e-16 -1.022229045e-16)
(1 -2.717107063e-16 -1.100402981e-16)
(1 -2.015928163e-16 -2.029863519e-16)
(1 -2.469346078e-16 -1.091894727e-16)
(1 -6.705805301e-17 -1.822495647e-16)
(1 -3.675682262e-17 2.615647399e-16)
(1 1.742797595e-16 1.179634331e-16)
(1 1.207283584e-16 1.85034916e-16)
(1 -2.324004776e-16 2.528036246e-16)
(1 -2.14129716e-16 9.916361888e-17)
(1 -2.262334009e-17 1.995829818e-16)
(1 -2.819862765e-16 -2.517977462e-17)
(1 -2.088960614e-16 -1.491904864e-16)
(1 -1.827218634e-17 -1.649144279e-16)
(1 -5.585270109e-17 -1.441747069e-16)
(1 1.239308219e-17 -3.611577279e-16)
(1 -1.64289531e-16 1.70973021e-16)
(1 2.637203825e-17 2.321018138e-16)
(1 1.042599877e-16 1.969057121e-16)
(1 1.447081509e-16 2.018345735e-16)
(1 -9.27519611e-17 3.266216269e-16)
(1 -2.127316868e-16 1.849998894e-16)
(1 -8.450806997e-17 -8.489550243e-17)
(1 -2.105990572e-16 -1.09533761e-16)
(1 -7.620326809e-17 -1.81361716e-16)
(1 -1.180630679e-17 -6.74632909e-17)
(1 3.997513499e-17 2.461084058e-17)
(1 2.645665966e-16 -2.031683742e-16)
(1 -1.106535154e-16 3.703991593e-16)
(1 -2.796584483e-17 1.518966994e-18)
(1 4.642337173e-17 4.205418987e-17)
(1 7.016840165e-17 2.921431212e-16)
(1 1.847655264e-16 2.24651285e-16)
(1 7.089702128e-17 9.15338881e-17)
(1 -2.522115029e-16 -2.76883541e-17)
(1 -8.238082887e-17 -3.208944549e-16)
(1 -1.810911293e-16 -1.356641465e-16)
(1 -2.18894078e-16 -4.043063845e-17)
(1 -3.568794367e-17 -2.314447118e-16)
(1 9.463497932e-18 1.134437699e-16)
(1 4.207664487e-16 -1.642365851e-16)
(1 -1.263888222e-15 -1.313299985e-15)
(1 -1.201903529e-15 -1.070428073e-15)
(1 -9.871979412e-16 -1.511829274e-15)
(1 -9.098633971e-16 -9.32180877e-16)
(1 -7.936704119e-16 -9.822802438e-16)
(1 -3.853686821e-16 -1.185206505e-15)
(1 -9.900165255e-16 -7.039179614e-16)
(1 -8.027625924e-16 -9.886738421e-16)
(1 -3.575014259e-16 -6.500128801e-16)
(1 -2.312436266e-16 -3.894093608e-16)
(1 -3.909539729e-16 -3.686923698e-16)
(1 -6.618554596e-16 -3.70973941e-16)
(1 -7.217064591e-16 -3.639814113e-16)
(1 -3.616815954e-16 -4.491420126e-16)
(1 -5.21374594e-16 -2.571605539e-16)
(1 -4.117572329e-16 -3.205613687e-16)
(1 -5.150146598e-16 -4.060482315e-16)
(1 -5.7029677e-16 -3.269025597e-16)
(1 -4.699963752e-16 -2.607627611e-16)
(1 -4.178181273e-16 -3.772269365e-16)
(1 -3.720435529e-16 -2.801633179e-16)
(1 -3.623015811e-16 -1.59781332e-16)
(1 -4.266090719e-16 -2.026711941e-16)
(1 -2.26206502e-16 -2.115258725e-16)
(1 -3.637568862e-16 -1.069004258e-16)
(1 -3.782339944e-16 -1.705709188e-16)
(1 -1.953072306e-16 -1.024870535e-16)
(1 -2.461877595e-16 -2.119232472e-16)
(1 -8.568933513e-16 -1.528544011e-16)
(1 -4.877154195e-16 -1.068158889e-16)
(1 -3.231077876e-16 -2.115256409e-16)
(1 -3.920420669e-16 7.926588527e-17)
(1 -2.789233769e-16 -1.46781007e-16)
(1 -3.748158232e-16 -2.317316807e-16)
(1 -2.757635922e-16 -2.152028131e-16)
(1 -9.302971579e-17 -3.532585351e-16)
(1 -5.995415633e-16 1.118762216e-16)
(1 -4.616934897e-16 -1.823084755e-16)
(1 -4.075176787e-16 -2.565215798e-17)
(1 -5.535425147e-16 3.356816015e-17)
(1 -3.915575662e-16 -2.248119639e-17)
(1 -2.401656352e-16 -3.487895469e-16)
(1 -1.998259632e-16 -2.796870692e-16)
(1 -3.658556337e-16 -2.727703665e-16)
(1 -1.435322668e-16 -2.665972548e-16)
(1 -1.64760473e-16 1.708020393e-16)
(1 -3.468661546e-16 6.031387793e-17)
(1 -4.728054472e-16 -2.356477815e-17)
(1 -3.266990166e-16 5.825593719e-17)
(1 -3.780585806e-16 -1.949840773e-16)
(1 -4.5459117e-16 -2.254336821e-16)
(1 -2.266293312e-16 -1.611232197e-16)
(1 -2.374699743e-16 -2.456888111e-16)
(1 -3.496001206e-16 -2.266328508e-16)
(1 -1.975494718e-16 -2.118224845e-16)
(1 5.722992573e-17 2.597383859e-16)
(1 3.180181998e-17 2.039816244e-16)
(1 -7.870475579e-17 1.238076713e-16)
(1 -3.169326221e-16 1.372123567e-16)
(1 -3.584218919e-16 -6.090945039e-17)
(1 -3.371270845e-16 -9.026370642e-18)
(1 -2.863751177e-16 -1.782775016e-16)
(1 -1.581321937e-16 -1.447598958e-16)
(1 -1.264450202e-16 -1.3222016e-16)
(1 -2.480830284e-16 -2.318510409e-16)
(1 -1.848723006e-16 -5.097692031e-16)
(1 -2.336254521e-16 1.987774007e-16)
(1 3.224335728e-17 9.509978648e-17)
(1 1.732424506e-16 2.338322114e-16)
(1 7.506648627e-17 2.887916311e-16)
(1 -1.793784788e-16 2.567675588e-16)
(1 -1.243088328e-16 1.44556633e-16)
(1 -1.615760579e-16 -5.73146342e-17)
(1 -2.657958464e-16 -8.911270678e-17)
(1 -8.749604209e-17 -1.042113499e-16)
(1 6.417635017e-19 -1.488717519e-16)
(1 -8.188100576e-18 -3.549943496e-17)
(1 3.158550062e-16 -2.427766375e-16)
(1 6.149628156e-17 2.723972672e-16)
(1 -1.897758788e-16 1.801057485e-16)
(1 -2.95028835e-17 1.828310726e-16)
(1 1.068151059e-16 2.413209895e-16)
(1 1.310832032e-16 1.386628809e-16)
(1 -9.398622499e-17 7.713313435e-17)
(1 -2.886227492e-16 -5.533275545e-17)
(1 -6.513684489e-17 -1.387176085e-16)
(1 -1.932937016e-16 1.502380473e-17)
(1 -1.626933819e-16 -5.80738898e-17)
(1 5.185287849e-17 -2.120069599e-16)
(1 1.32706818e-16 3.384141665e-17)
(1 2.849674692e-16 -7.029161128e-17)
(1 2.316693189e-16 1.823369199e-16)
(1 -1.676011182e-16 4.751584912e-16)
(1 1.869995081e-16 -1.688592441e-16)
(1 3.302976851e-18 2.374761992e-16)
(1 1.152912517e-16 8.533135439e-17)
(1 -1.449483818e-16 8.400986682e-18)
(1 -2.310873562e-16 -6.196929251e-17)
(1 -5.31161679e-17 -1.796963856e-17)
(1 1.529470072e-16 -2.18189994e-16)
(1 -1.659060039e-16 -2.175910723e-17)
(1 -4.295001445e-17 1.911629644e-16)
(1 1.129912607e-16 5.9660854e-17)
(1 2.719138858e-16 -1.20607225e-16)
(1 1.882763248e-16 2.170013299e-16)
(1 -9.00915601e-16 -8.557742288e-16)
(1 -1.177782766e-15 -9.77026417e-16)
(1 -9.31259149e-16 -1.29920462e-15)
(1 -1.153190657e-15 -8.942378005e-16)
(1 -9.498003238e-16 -1.090945424e-15)
(1 -5.592466626e-16 -1.27639804e-15)
(1 -8.931806645e-16 -6.842008271e-16)
(1 -7.450618703e-16 -9.912433241e-16)
(1 -4.321152772e-16 -6.689556897e-16)
(1 -2.095417755e-16 -5.121612151e-16)
(1 -7.341369083e-16 -7.010063317e-16)
(1 -7.939028363e-16 -5.572388363e-16)
(1 -5.858936504e-16 -5.243019025e-16)
(1 -2.518452703e-16 -4.265212775e-16)
(1 -2.741330353e-16 -1.791437211e-16)
(1 -4.56119653e-16 -2.716203932e-16)
(1 -3.509910644e-16 -3.423466906e-16)
(1 -6.486353753e-16 -1.708811509e-16)
(1 -4.721222943e-16 -2.699215549e-16)
(1 -4.085830856e-16 -3.722107792e-16)
(1 -3.873027384e-16 -3.358969723e-16)
(1 -2.971723819e-16 -2.827374434e-16)
(1 -4.294902472e-16 -3.051941224e-16)
(1 -2.255727143e-16 -2.660833631e-16)
(1 -4.598534502e-16 -1.965099371e-16)
(1 -4.227077908e-16 -1.054693023e-16)
(1 -1.761772594e-16 -1.230022158e-16)
(1 -3.347389072e-16 -1.80406118e-16)
(1 -9.989459563e-16 -1.600353544e-16)
(1 -3.827736006e-16 -3.29930626e-16)
(1 -3.265347099e-16 -1.425911172e-16)
(1 -3.551193474e-16 -7.568084428e-17)
(1 -3.823863557e-16 -2.156405931e-16)
(1 -3.101572011e-16 -2.448885659e-16)
(1 -3.945018983e-16 3.37663209e-17)
(1 -1.409248643e-17 -3.376017802e-16)
(1 -7.399491467e-16 3.259803813e-16)
(1 -4.968869747e-16 -7.367504669e-17)
(1 -2.846734585e-16 -1.463418914e-16)
(1 -6.179061925e-16 -4.686182973e-17)
(1 -3.91350153e-16 -1.721536599e-16)
(1 -2.191462512e-16 -2.577049829e-16)
(1 -3.231253783e-16 -1.269852947e-16)
(1 -2.111463075e-16 -2.897658288e-16)
(1 -6.099219731e-17 -1.31379457e-16)
(1 -4.488715867e-16 1.1883324e-16)
(1 -4.358763924e-16 1.96610203e-16)
(1 -4.211381735e-16 -1.045337642e-16)
(1 -4.778188928e-16 -2.730465193e-17)
(1 -4.835029816e-16 -2.01155169e-16)
(1 -4.368398919e-16 -3.050684535e-16)
(1 -2.679852581e-16 -2.731397867e-16)
(1 -2.571030469e-16 -2.233312319e-16)
(1 -2.04987676e-16 -1.584386819e-16)
(1 -1.757656793e-16 -2.928665716e-16)
(1 -2.96460304e-16 1.289991085e-16)
(1 -2.440200686e-16 6.012334211e-17)
(1 -2.718689064e-16 1.797905301e-16)
(1 -3.095241947e-16 4.841493042e-17)
(1 -4.394038573e-16 -9.733471743e-17)
(1 -5.21814652e-16 -1.789473878e-16)
(1 -3.035574497e-16 -2.182184171e-16)
(1 -1.305137307e-16 -1.870900008e-16)
(1 -1.445335029e-16 -2.258458913e-16)
(1 -4.055481661e-16 -2.320052955e-16)
(1 -2.048240263e-16 -4.067146581e-16)
(1 -1.787987785e-16 2.32657685e-16)
(1 -1.578492083e-17 4.152585822e-17)
(1 4.621110372e-17 1.183902446e-16)
(1 -1.674418074e-16 2.64961048e-16)
(1 -2.764599445e-16 4.352566303e-17)
(1 -1.082330489e-16 5.864932525e-17)
(1 -1.79117759e-16 4.39680453e-18)
(1 -2.174214112e-16 3.048611855e-17)
(1 -4.926353701e-17 -9.662939815e-17)
(1 -1.797408509e-16 -1.608850716e-16)
(1 -2.125150085e-16 -2.625420516e-16)
(1 1.914898701e-16 -4.357139545e-16)
(1 5.075610071e-17 2.488878375e-16)
(1 -2.68261042e-16 1.720059287e-16)
(1 -2.428322676e-17 1.027683555e-16)
(1 8.963909706e-17 1.026562738e-16)
(1 -4.862744439e-17 1.041520468e-16)
(1 -2.189197101e-16 1.385891419e-16)
(1 -2.413384544e-16 -7.975835942e-18)
(1 -2.680362328e-17 -1.049593468e-16)
(1 -2.167255721e-16 4.312076792e-17)
(1 -2.3057604e-17 -7.267980892e-17)
(1 6.735119565e-17 -1.154980911e-16)
(1 1.963963553e-16 -8.823944501e-17)
(1 2.043032412e-16 -2.21526673e-17)
(1 2.43323302e-16 1.74971861e-16)
(1 4.350513267e-17 4.411330636e-16)
(1 7.022511671e-17 1.100468581e-16)
(1 -7.079166049e-17 1.664501804e-16)
(1 4.017204958e-17 4.964050045e-17)
(1 -1.227342734e-16 1.490214001e-18)
(1 -2.664948757e-16 -2.996377966e-17)
(1 -1.641253033e-16 7.38151591e-18)
(1 4.174697474e-17 -1.270378722e-16)
(1 -1.726827652e-16 -3.376125372e-17)
(1 -4.214558614e-17 1.174589895e-16)
(1 7.569464371e-17 6.486588117e-18)
(1 2.524763936e-16 -1.980058659e-16)
(1 1.552898359e-16 1.177528857e-17)
(1 -4.223826817e-17 2.369618287e-17)
(1 -1.069356286e-16 4.439907721e-16)
(1 3.288798453e-16 -6.202121645e-17)
(1 -1.021680899e-16 1.005779053e-16)
(1 -1.344341641e-16 4.653104281e-17)
(1 -9.433717044e-17 -1.48811503e-16)
(1 -4.195656082e-17 -1.940727621e-16)
(1 -1.348469134e-16 -8.170002389e-17)
(1 -2.516090403e-17 1.296446418e-16)
(1 1.800183514e-16 7.15425053e-19)
(1 -1.372329155e-16 1.072597317e-16)
(1 8.483724441e-17 2.127419687e-16)
(1 5.676665351e-17 -1.17833272e-16)
(1 2.096314532e-17 -2.396503974e-16)
(1 -8.691996576e-17 2.145655703e-16)
(1 -3.977218238e-16 -1.640278176e-16)
(1 -6.407551872e-16 -6.921845417e-16)
(1 -7.778256527e-16 -7.979895926e-16)
(1 -1.080126972e-15 -8.644222559e-16)
(1 -8.522011747e-16 -9.946785174e-16)
(1 -7.366632635e-16 -1.184259703e-15)
(1 -8.751182315e-16 -5.400306435e-16)
(1 -8.101956664e-16 -8.834100629e-16)
(1 -6.040783897e-16 -8.077314498e-16)
(1 -3.216745217e-16 -9.705938945e-16)
(1 -6.870349977e-16 -7.94225595e-16)
(1 -8.478712713e-16 -6.721523617e-16)
(1 -6.356048623e-16 -6.482636311e-16)
(1 -2.277123476e-16 -4.147137688e-16)
(1 -1.849709063e-16 -9.829967474e-17)
(1 -7.279007933e-16 -2.442439287e-16)
(1 -3.135364045e-16 -5.268675583e-16)
(1 -6.22263938e-16 -2.551125931e-16)
(1 -4.476141551e-16 -4.828868032e-16)
(1 -3.850284725e-16 -2.59826549e-16)
(1 -2.964066523e-16 7.255210376e-17)
(1 -9.206312817e-17 -3.818667151e-16)
(1 -4.781720852e-16 -2.294411189e-16)
(1 -2.638623751e-16 -2.300972327e-16)
(1 -5.467083102e-16 -2.026625396e-16)
(1 -4.750915424e-16 -1.616822031e-16)
(1 -2.45493655e-16 -3.112897225e-16)
(1 -4.447259726e-16 -2.147685021e-16)
(1 -6.505821553e-16 -3.55037799e-16)
(1 -3.339038379e-16 -3.439755464e-16)
(1 -3.688473592e-16 -1.480060304e-16)
(1 -3.294214401e-16 -1.805445088e-16)
(1 -5.0446659e-16 -2.732551272e-16)
(1 -3.623023433e-16 -2.63198178e-16)
(1 -4.198351568e-16 -6.335086394e-17)
(1 -1.902946525e-16 -1.520528518e-16)
(1 -9.028122158e-16 2.690175269e-16)
(1 -6.320989157e-16 2.763755673e-19)
(1 -1.652161803e-16 -2.580347496e-16)
(1 -4.612418215e-16 -1.61838061e-16)
(1 -2.760970781e-16 -1.72287354e-16)
(1 -3.709240922e-16 -1.989727994e-16)
(1 -4.736706174e-16 -2.151101917e-16)
(1 -2.019091429e-16 -3.659661995e-16)
(1 -2.224622064e-16 -1.447700656e-16)
(1 -3.92570542e-16 2.569126069e-16)
(1 -3.797896938e-16 3.168652604e-16)
(1 -3.60705488e-16 -1.422975805e-16)
(1 -4.353574135e-16 -5.50431576e-17)
(1 -4.658279577e-16 -1.028592203e-16)
(1 -3.426280047e-16 -2.837825488e-16)
(1 -3.281065164e-16 -1.612868287e-16)
(1 -3.183467782e-16 -1.989079794e-16)
(1 -1.447438926e-16 -3.523037755e-16)
(1 -3.027103318e-16 -3.707517974e-16)
(1 -3.553416539e-16 2.056626505e-16)
(1 -3.19634547e-16 7.887561979e-17)
(1 -3.657948365e-16 1.528387717e-16)
(1 -2.890454702e-16 -1.757796796e-17)
(1 -4.476415042e-16 -1.295539201e-17)
(1 -5.44647282e-16 -2.999397977e-16)
(1 -3.30291392e-16 -3.367278642e-16)
(1 -3.333596378e-16 -2.935204706e-16)
(1 -2.037904428e-16 -2.303425984e-16)
(1 -3.389710293e-16 -1.878999936e-16)
(1 -2.009011955e-17 -2.326825541e-16)
(1 -1.980428723e-16 2.230627343e-16)
(1 -2.787514224e-16 1.055542896e-16)
(1 -1.691398722e-16 8.494825521e-17)
(1 -2.443051526e-16 2.436013179e-16)
(1 -3.092775875e-16 -8.249173945e-17)
(1 -2.374147938e-16 -1.248714199e-16)
(1 -2.368654548e-16 1.282474072e-16)
(1 -1.58980057e-16 -3.550974818e-17)
(1 -1.982876104e-17 -1.82014629e-16)
(1 -1.717696208e-16 -1.334025598e-16)
(1 -2.587598929e-16 -2.369048824e-16)
(1 -1.064281005e-17 -2.34543518e-16)
(1 -2.697134869e-17 2.678507177e-16)
(1 -1.692853349e-16 1.457439866e-16)
(1 -1.172424203e-17 2.393942091e-17)
(1 -8.012144299e-17 1.544120952e-16)
(1 -1.03774192e-16 4.644063189e-17)
(1 -1.914830141e-16 1.098397065e-16)
(1 -2.039208503e-16 1.231702987e-16)
(1 -7.108897873e-17 -5.192498468e-17)
(1 -1.660375921e-16 -6.126757491e-17)
(1 -1.191664578e-16 -7.165328036e-17)
(1 1.635235274e-17 -1.249444265e-16)
(1 1.240767105e-16 -1.435800841e-16)
(1 1.660924587e-16 -4.538855501e-17)
(1 9.586559564e-17 1.679731303e-16)
(1 3.3880432e-17 2.720390438e-16)
(1 -3.106122444e-17 9.236437874e-17)
(1 -1.114107511e-16 1.912942659e-16)
(1 6.099274771e-17 -3.544808946e-17)
(1 -1.996379023e-16 1.329074919e-16)
(1 -1.94765712e-16 -3.940951211e-17)
(1 -1.312387743e-16 -1.356876221e-17)
(1 -1.054045456e-16 -9.314277083e-18)
(1 -1.775881449e-16 -1.059752969e-16)