/*--------------------------------*- C++ -*----------------------------------*\
| =========                 |                                                 |
| \\      /  F ield         | OpenFOAM: The Open Source CFD Toolbox           |
|  \\    /   O peration     | Version:  2212                                  |
|   \\  /    A nd           | Website:  www.openfoam.com                      |
|    \\/     M anipulation  |                                                 |
\*---------------------------------------------------------------------------*/
FoamFile
{
    version     2.0;
    format      ascii;
    arch        "LSB;label=32;scalar=64";
    class       volScalarField;
    location    "1.4";
    object      p;
}
// * * * * * * * * * * * * * * * * * * * * * * * * * * * * * * * * * * * * * //

dimensions      [0 2 -2 0 0 0 0];

internalField   nonuniform List<scalar> 
42875
(
9.261254248e-16
2.223339602e-16
1.017597088e-15
4.696711555e-16
1.071787285e-16
1.257134305e-16
-2.09671426e-16
1.09271164e-15
8.525763939e-16
3.11294954e-16
6.359446722e-16
9.965462167e-16
4.642363573e-16
6.635616778e-16
3.179022842e-16
1.66932667e-17
1.399973744e-15
1.291412928e-15
8.705678006e-17
6.719604336e-16
1.006975724e-15
7.266534248e-16
8.38074942e-16
5.962017143e-16
3.297755517e-16
7.130477309e-16
6.855750947e-16
5.246703043e-16
1.02876733e-15
-2.853120761e-16
1.752702385e-15
9.942710037e-16
8.328998959e-16
6.503981456e-16
9.385151047e-16
7.188817832e-16
4.4497189e-16
9.163047652e-16
6.652011951e-17
5.070062597e-16
4.867278308e-16
4.453589423e-16
3.996701957e-16
7.930017648e-16
3.972115227e-16
3.659230249e-16
4.661664742e-16
4.337207381e-16
3.573886074e-16
-2.758699668e-16
1.95599422e-15
1.14006827e-15
6.74074841e-16
5.980402769e-16
4.570034362e-16
7.519961234e-16
3.289120433e-16
9.515991256e-16
1.052922269e-15
3.063272325e-16
6.939971955e-16
7.727837056e-16
4.017623886e-16
3.250661266e-16
3.217115928e-16
5.808417741e-16
3.92284375e-16
4.553848418e-16
4.665108204e-16
4.098228931e-16
7.054309373e-17
1.18350912e-15
8.374735205e-16
7.204367143e-16
1.755757215e-16
1.458896964e-17
-1.595344406e-17
1.40376974e-15
1.333441886e-15
7.816244478e-16
4.101030533e-17
2.101870434e-16
4.712329915e-16
5.400352748e-16
2.003321916e-16
7.86140467e-16
9.528740608e-16
1.323923561e-15
1.052691802e-15
1.076856002e-15
7.089327865e-16
7.438896447e-16
8.354397949e-16
6.43891422e-16
5.831480703e-16
6.433543151e-16
1.858596389e-16
3.585302115e-16
4.161429453e-16
8.434370313e-16
2.56956298e-16
5.3231862e-16
2.097967509e-16
3.895023801e-16
1.584433395e-16
6.522965014e-16
1.140484355e-15
8.889918093e-16
1.155082256e-16
-2.994462044e-16
2.788937563e-16
-1.188106275e-16
1.791020157e-15
1.217318369e-15
1.21219117e-15
-7.501428965e-18
-9.400381352e-17
3.907230843e-16
4.773126319e-16
1.051271279e-15
8.975607163e-16
6.057753059e-16
8.52235898e-16
1.323718438e-15
1.192825645e-15
1.371923279e-15
1.309064791e-15
9.483935108e-16
9.748402417e-16
1.420513668e-15
5.32099761e-16
8.308161379e-16
1.079910625e-15
6.217128929e-16
3.313005347e-16
3.1049884e-16
5.992310747e-16
6.481449877e-16
2.716656227e-16
4.826657355e-16
3.862628166e-16
5.360493579e-16
8.598283734e-16
4.913184092e-16
-2.061343348e-17
3.467990954e-16
5.168808009e-16
8.420657573e-16
8.662881089e-16
8.780460635e-16
1.280056343e-15
5.054500171e-16
-2.338379781e-17
-1.729258993e-16
1.228055818e-16
6.172391623e-16
1.441142063e-15
1.303102203e-15
1.168648133e-15
4.157202931e-16
3.798358504e-16
3.408698011e-18
3.619668315e-16
8.913136792e-16
1.081753728e-15
1.272585047e-15
1.178914714e-15
8.234155379e-16
3.271497444e-16
8.965027093e-16
9.966710774e-16
1.467957567e-15
1.417682897e-15
1.009390412e-15
1.501712699e-15
6.939549115e-16
1.356532939e-15
6.561421081e-16
1.22560359e-15
6.631726085e-16
-2.782251164e-16
9.219844958e-16
5.721020548e-16
9.696194447e-16
6.8526644e-16
2.303769907e-16
3.598119254e-16
3.246249153e-16
5.407464184e-16
3.181962405e-16
4.076415482e-16
3.411969049e-16
5.319273324e-16
5.430627547e-16
6.845382879e-16
8.375123464e-16
4.828751255e-16
4.809232348e-16
2.667820177e-16
7.948058215e-16
7.007988924e-16
1.237292044e-15
8.796647149e-16
1.10467078e-15
6.44722783e-16
-1.528687272e-17
1.890627336e-16
1.344569488e-16
8.875278063e-16
6.815675273e-16
1.5673802e-15
1.168701272e-15
1.458642267e-15
8.505867763e-16
4.592481761e-16
4.76518537e-16
1.355074661e-16
6.724484501e-16
2.863096437e-16
1.2313336e-15
1.815946682e-15
1.124422035e-15
1.30403045e-15
7.747788238e-16
1.237643542e-15
9.147647013e-16
8.187388095e-16
8.987895194e-16
9.306850767e-16
1.384299234e-15
1.280415179e-15
1.885611335e-15
1.191153949e-15
1.061178317e-15
1.223444888e-15
7.568019315e-16
1.109611545e-15
1.142800094e-15
1.063073332e-15
1.363769791e-15
9.898944855e-16
3.614084721e-16
3.760092175e-16
9.315692433e-16
7.569458183e-16
9.158509621e-16
5.14502466e-16
3.027663796e-16
8.905741486e-16
3.809135246e-16
1.774690735e-16
5.072129212e-16
1.201469321e-16
1.544218471e-16
6.769552644e-16
-9.904878809e-17
1.080134047e-15
3.628000676e-16
7.063663796e-16
6.423823618e-16
2.870120635e-16
3.128486286e-16
4.764964526e-16
6.102511998e-16
6.938500993e-16
9.5565467e-16
1.101942889e-15
1.008988694e-15
5.905416649e-16
3.93407839e-16
1.409888803e-16
5.22156658e-16
7.212877295e-16
9.785707032e-16
9.026225084e-16
2.273728466e-15
1.600751494e-15
1.477286176e-15
1.255129592e-15
8.235964576e-16
2.838545099e-16
4.941382494e-16
3.760847148e-16
1.011452211e-15
7.082576762e-16
1.156700154e-15
2.180973591e-15
1.324176568e-15
2.219517117e-15
1.015857505e-15
1.22934396e-15
1.616996969e-15
1.167874596e-15
1.047095261e-15
1.1005637e-15
1.393074469e-15
1.293288296e-15
1.192544938e-15
1.073437014e-15
1.590057262e-15
1.594995628e-15
1.706270574e-15
1.471768732e-15
1.630523752e-15
1.206865166e-15
1.09606373e-15
1.344744459e-15
8.543798211e-16
9.784657664e-16
1.116137126e-15
1.335579855e-15
1.232839899e-15
9.902971216e-16
8.053024442e-16
1.707097176e-16
7.872853207e-16
4.467679774e-16
7.309367258e-16
7.118337252e-16
7.315394369e-16
4.851577248e-16
-1.13523051e-16
7.48157989e-16
6.856811594e-16
3.29381077e-16
5.381672072e-16
2.684690008e-16
4.59333146e-16
4.540265914e-16
2.210827325e-16
3.106046772e-17
1.540176516e-15
5.075989791e-16
7.923754764e-16
6.223591269e-16
5.753102589e-16
8.993896271e-17
6.168562875e-16
5.28508557e-16
6.22918225e-16
4.296081366e-16
1.279200751e-15
8.9881892e-16
1.315741516e-15
6.475673617e-16
7.548230404e-16
4.06603777e-16
4.106538762e-16
7.345487276e-16
9.837485862e-16
9.206870327e-16
8.301353619e-16
1.336043116e-15
1.68693959e-15
1.602636412e-15
7.598690173e-16
1.479355918e-15
5.741504316e-16
5.836872847e-16
8.645467186e-16
5.536671825e-16
3.986096074e-16
7.023619213e-16
7.871473826e-16
2.241569951e-15
1.837144874e-15
1.980751396e-15
1.246953291e-15
1.669647264e-15
2.111180291e-15
1.472559798e-15
1.194469343e-15
1.176211622e-15
1.288158659e-15
1.399860971e-15
1.116360821e-15
1.044539343e-15
1.246978491e-15
1.527222872e-15
1.574261767e-15
1.196402227e-15
1.16352869e-15
1.21219544e-15
1.319955187e-15
1.8033829e-15
1.223411513e-15
1.41188327e-15
1.292180095e-15
1.606016587e-15
1.396148455e-15
1.75704167e-15
1.575155172e-15
1.979709197e-16
1.150480515e-15
1.074969857e-15
1.095169475e-15
1.349608665e-15
1.367646409e-15
1.214993189e-15
1.041041117e-15
4.305934439e-16
1.165154503e-15
8.118185772e-16
8.184066832e-16
9.03695307e-16
8.882134487e-16
6.767018559e-16
2.207235386e-16
3.019791496e-17
1.640041993e-15
4.790166244e-16
1.064665323e-15
6.648441437e-16
4.913408745e-16
2.360479949e-16
-7.532754974e-18
4.382204178e-16
5.256534302e-16
-4.678755099e-16
8.649067417e-16
1.05739798e-15
7.167546884e-16
7.087805661e-16
8.154646389e-16
3.207408422e-16
4.340387584e-16
9.067468921e-16
3.859553318e-16
3.444458096e-16
4.197192562e-16
1.779571763e-15
1.201647146e-15
1.407521425e-15
7.92858843e-16
5.621501323e-16
7.251534021e-16
6.731109027e-16
5.4439234e-16
6.833140396e-16
9.068131008e-16
6.971451745e-16
7.526892144e-16
2.282487095e-15
1.157691099e-15
2.200618522e-15
1.327530103e-15
1.108994605e-15
4.055758678e-16
6.32156319e-16
8.349286255e-16
9.927820533e-16
7.856209082e-16
7.420670071e-16
2.064301742e-16
1.031311063e-15
3.001491275e-15
2.009685579e-15
1.628256438e-15
1.737727273e-15
1.739276913e-15
1.605860009e-15
1.14341458e-15
1.448122336e-15
1.401646127e-15
1.638024239e-15
1.376152521e-15
1.040254817e-15
1.034512487e-15
1.039110766e-15
1.645132701e-15
1.268670403e-15
1.305916722e-15
1.044346924e-15
1.143053389e-15
1.096698532e-15
1.478070247e-15
1.390789031e-15
1.532562561e-15
1.198765818e-15
1.352956195e-15
1.147868285e-15
1.879137329e-15
1.885414258e-15
9.029795271e-16
1.270342764e-15
1.378365326e-15
1.534474149e-15
1.620585384e-15
1.810422878e-15
1.69999574e-15
1.591431656e-15
1.133074008e-15
1.475466699e-15
1.187910128e-15
1.554460401e-15
1.097757206e-15
1.434812223e-15
1.777619901e-15
1.121006161e-15
9.306286202e-16
6.231977745e-16
9.719163219e-16
7.580199455e-16
1.087846577e-15
6.662529654e-16
9.49711186e-16
9.929453543e-16
5.194194254e-16
5.272410105e-16
-3.281494163e-16
1.030566238e-15
1.175298678e-15
7.881674027e-16
7.295551464e-16
4.119443627e-16
4.568242322e-16
3.233263808e-16
4.367640491e-16
3.888382589e-16
1.340280638e-16
-2.285416869e-16
1.198176098e-15
1.258440818e-15
8.757060383e-16
6.539640643e-16
9.467943324e-16
7.569107411e-16
5.998398906e-16
6.831877209e-16
1.044107325e-15
6.830147371e-16
6.987458394e-16
3.485660924e-16
1.447687226e-15
1.712251834e-15
1.416045227e-15
1.121259299e-15
9.144228965e-16
1.02673163e-15
5.935319075e-16
7.180210019e-16
4.436737751e-16
7.572891699e-16
7.606637824e-16
1.081775034e-15
7.810760548e-16
1.767178021e-15
1.352336731e-15
1.861439753e-15
1.194337609e-15
8.788298484e-16
4.317453438e-16
6.767502999e-16
7.32762375e-16
1.275939763e-15
7.462985936e-16
3.910390732e-16
3.763323469e-16
2.431389095e-16
1.236959847e-15
2.106129776e-15
2.276362974e-15
1.890435312e-15
1.885204137e-15
1.46826661e-15
1.391819384e-15
1.05116179e-15
1.720754636e-15
1.891567377e-15
1.531286828e-15
9.602002743e-16
1.357134409e-15
1.350992696e-15
1.371020262e-15
1.596930498e-15
9.238027133e-16
1.307199133e-15
1.006723668e-15
8.305929924e-16
1.291145548e-15
1.59879898e-15
1.714213445e-15
1.369934192e-15
1.114563685e-15
1.409483163e-15
1.098292546e-15
1.392802369e-15
1.115526385e-15
9.794804459e-16
1.278680963e-15
1.156153103e-15
1.325603343e-15
1.654066039e-15
1.667451367e-15
1.84469637e-15
1.508844994e-15
9.12194373e-16
9.80278328e-16
1.535289906e-15
1.451197964e-15
1.59132484e-15
1.897232188e-15
1.612624602e-15
1.524154996e-15
1.130841232e-15
7.503628775e-16
1.282118231e-15
7.358940391e-16
1.646067674e-15
1.537233821e-15
1.35952175e-15
1.898226505e-15
1.36357746e-15
1.062890977e-15
1.265980598e-15
1.502968724e-15
1.265005421e-15
1.04321373e-15
1.013538946e-15
9.233481553e-16
8.161314097e-16
1.226992957e-15
8.165197278e-16
7.933467094e-16
4.732236949e-16
2.649037984e-16
1.244323576e-15
1.141338434e-15
1.044114232e-15
8.503489838e-16
9.010604162e-16
5.983486925e-16
3.22751212e-16
5.711795921e-16
9.388033441e-16
4.946218008e-16
2.029908003e-16
-1.348049829e-16
1.159992633e-15
9.271294539e-16
9.591213239e-16
6.740111896e-16
9.467300239e-16
1.142731611e-15
8.79793838e-16
9.624692827e-16
7.047439982e-16
8.956081144e-16
5.06849794e-16
4.652615793e-16
3.653115262e-16
1.387061711e-15
1.634892381e-15
1.274319034e-15
1.432171604e-15
1.334920261e-15
1.156981616e-15
1.112227055e-15
8.945173921e-16
7.94668809e-16
5.391687884e-16
5.497011427e-16
8.582810334e-16
8.973371199e-16
1.036096603e-15
7.410013687e-16
1.583207009e-15
1.181408445e-15
1.332205032e-15
7.597852549e-16
9.4294782e-16
7.047980645e-16
5.278049614e-16
7.739604026e-16
8.221156358e-16
5.923658037e-16
3.662802383e-16
7.885636428e-16
4.507022282e-16
1.352677978e-15
2.804918481e-15
1.9352188e-15
2.347660598e-15
2.183491942e-15
1.937735428e-15
1.630935118e-15
1.500388598e-15
1.646779925e-15
1.811122213e-15
1.722445115e-15
1.538658826e-15
1.533109139e-15
1.697022758e-15
1.592936981e-15
1.805457845e-15
9.435147454e-16
1.127904977e-15
1.385368559e-15
1.364956391e-15
1.571027152e-15
1.786366161e-15
1.260101401e-15
1.118172983e-15
1.435589644e-15
1.453198025e-15
1.354942847e-15
1.400386934e-15
1.697202384e-15
1.759241705e-15
1.420612004e-15
1.25863424e-15
1.254058198e-15
1.123707525e-15
1.458716004e-15
1.703220107e-15
1.660331361e-15
9.62708884e-16
1.272505302e-15
1.317877606e-15
1.224064716e-15
1.57428484e-15
1.979145104e-15
1.765523409e-15
1.574281608e-15
8.943970691e-16
8.016318417e-16
1.655873907e-15
8.009008253e-16
1.724833682e-15
1.647529825e-15
1.857479179e-15
2.050580387e-15
1.64732564e-15
1.585128895e-15
1.162732702e-15
1.358805308e-15
9.116196296e-16
9.673579136e-16
1.269627076e-15
1.861820826e-15
1.484098725e-15
1.965681377e-15
1.554652874e-15
1.418607874e-15
1.099067888e-15
1.073918042e-15
1.082284846e-15
1.073118824e-15
9.956852129e-16
9.972886742e-16
9.439245162e-16
9.635420512e-16
9.217194011e-16
1.02655692e-15
9.517513316e-16
5.971326407e-16
7.321421956e-16
1.031677461e-16
1.121580824e-15
1.30275192e-15
1.032402832e-15
1.087927963e-15
7.876181577e-16
7.343982494e-16
8.141980525e-16
7.127644051e-16
5.366371992e-16
8.587412537e-16
5.696407105e-16
-1.01813649e-16
-1.884126173e-16
1.124656989e-15
1.335358042e-15
7.128498558e-16
9.62253431e-16
1.081075306e-15
1.392996549e-15
1.013548675e-15
8.42576588e-16
7.083808621e-16
9.256066891e-16
1.049309948e-15
5.470551901e-16
4.365738914e-16
5.616457159e-16
1.829473176e-15
1.154446382e-15
1.269557716e-15
1.142921483e-15
1.21841562e-15
1.162256547e-15
1.211096278e-15
6.376505866e-16
1.331452983e-15
7.653715926e-16
6.934327367e-16
4.599572034e-16
8.970109358e-16
1.14194791e-15
1.627757082e-15
1.215047672e-15
1.377526972e-15
1.183939659e-15
1.320798192e-15
1.142038306e-15
4.453268751e-16
7.147047045e-16
4.883117724e-16
1.184521376e-15
4.248794645e-16
8.982398015e-16
2.32540738e-16
3.712741446e-16
9.734896798e-16
8.165291046e-16
6.517831248e-16
2.872095424e-15
2.449557032e-15
2.765983247e-15
2.320666575e-15
2.174728632e-15
1.998549509e-15
2.055430334e-15
1.849782529e-15
2.290557823e-15
1.900311405e-15
1.357095771e-15
1.423341029e-15
1.930148463e-15
1.833367311e-15
1.985642415e-15
1.51587234e-15
1.634015256e-15
2.147067178e-15
1.593583004e-15
1.834978175e-15
1.741493564e-15
6.782411396e-16
1.005092371e-15
1.346884782e-15
1.024504645e-15
1.270224128e-15
1.502455391e-15
1.770707861e-15
1.508383991e-15
1.21719345e-15
1.30650081e-15
1.229955409e-15
1.093812634e-15
1.291035533e-15
2.024384334e-15
2.50066101e-15
1.485776802e-15
1.327071857e-15
1.383905913e-15
1.265252177e-15
1.38346799e-15
1.871713496e-15
1.820260301e-15
1.694216522e-15
1.433656798e-15
7.709612758e-16
1.51816085e-15
1.18413954e-15
1.32687282e-15
1.171793865e-15
1.611697555e-15
2.028631047e-15
1.557466243e-15
1.393122092e-15
1.053223509e-15
8.564276154e-16
1.095632211e-15
1.757507931e-15
1.864568881e-15
1.717018502e-15
1.900220587e-15
1.588812897e-15
1.989778051e-15
1.496879107e-15
1.807950569e-15
1.065634177e-15
1.462610703e-15
1.125031652e-15
1.06368356e-15
1.373803421e-15
1.337035663e-15
1.583655594e-15
1.652508528e-15
1.738621666e-15
1.723114729e-15
1.428178714e-15
1.066598619e-15
6.61009546e-16
1.093689253e-15
1.030811604e-15
1.036147413e-15
1.066272605e-15
1.142272867e-15
9.187299058e-16
9.703348408e-16
8.411376328e-16
1.044656718e-15
9.155434876e-16
7.163602602e-16
3.458982907e-16
-1.512072199e-16
1.153416908e-15
1.061076972e-15
8.077720936e-16
9.551605762e-16
9.645766358e-16
6.968558514e-16
8.361981307e-16
7.05005272e-16
5.206530865e-16
8.402020149e-16
1.139952653e-15
2.150006304e-16
4.043555831e-16
4.375343001e-17
1.064766474e-15
8.752265942e-16
1.044402939e-15
6.947571664e-16
7.736259211e-16
1.382323368e-15
1.02749841e-15
1.118227843e-15
9.280988133e-16
1.039590389e-15
8.29584228e-16
1.006407512e-15
5.599151963e-16
6.387733542e-16
7.597170515e-16
1.073135128e-15
1.347360825e-15
9.942367074e-16
1.292889819e-15
9.440258133e-16
9.726124109e-16
1.416620863e-15
6.603610873e-16
6.899403149e-16
1.053994061e-15
5.960905725e-16
1.108801891e-15
5.890091913e-16
1.157569337e-15
1.034730362e-15
1.573186099e-15
8.446293864e-16
1.12607358e-15
1.010503856e-15
1.150853764e-15
5.654306303e-16
1.028004403e-15
6.84394427e-16
9.04122794e-16
7.252743333e-16
1.044419713e-15
5.907414175e-16
8.094300606e-16
4.459877501e-16
7.472094943e-16
6.416259384e-16
6.008732723e-16
1.532406674e-16
1.757339852e-15
2.781874022e-15
2.760385251e-15
2.470530371e-15
2.358164397e-15
2.240367912e-15
2.055169737e-15
2.011398351e-15
1.735943727e-15
2.203954543e-15
1.443132932e-15
1.929632412e-15
2.172462829e-15
2.107278548e-15
1.884865391e-15
1.461011873e-15
1.662222283e-15
2.113409494e-15
1.773958125e-15
1.805881324e-15
2.102946575e-15
1.625016565e-15
1.544919328e-15
1.739037485e-15
1.368732496e-15
1.609125592e-15
1.795032916e-15
2.356948161e-15
1.019742154e-15
1.264414116e-15
1.151496116e-15
1.198978539e-15
1.373289956e-15
1.401201966e-15
1.712202335e-15
1.946957162e-15
1.14153777e-15
1.264301748e-15
1.493010643e-15
1.312752274e-15
1.35536236e-15
1.105909108e-15
1.755039365e-15
2.240108402e-15
2.045461906e-15
9.829041768e-16
1.468142579e-15
1.51072397e-15
1.241207233e-15
1.074283116e-15
1.497130845e-15
1.850076734e-15
1.417070488e-15
1.570144933e-15
1.606810315e-15
1.11246223e-15
1.032351049e-15
1.26229952e-15
1.364247801e-15
1.4806145e-15
1.522293645e-15
2.009946356e-15
1.784347321e-15
1.752596322e-15
1.226952568e-15
9.21123306e-16
1.338911415e-15
1.38908785e-15
1.297862992e-15
1.928970698e-15
1.810847834e-15
1.918252465e-15
1.890990778e-15
2.059820702e-15
1.973315818e-15
1.705121299e-15
1.191883144e-15
1.026711509e-15
1.543960776e-15
1.284247047e-15
1.14997433e-15
1.050599131e-15
1.433160866e-15
1.215805402e-15
1.637027239e-15
1.426180661e-15
2.003885823e-15
1.565418199e-15
1.249324072e-15
1.062195572e-15
5.492713359e-16
1.073437277e-15
1.140379249e-15
1.209393776e-15
1.206201929e-15
1.145710459e-15
1.419743529e-15
1.332205987e-15
1.302720766e-15
1.272574277e-15
1.211251756e-15
8.93795714e-16
7.703234069e-16
6.326017683e-16
3.056095857e-17
9.349802481e-16
8.757760925e-16
9.317661156e-16
7.969392889e-16
1.070723289e-15
1.313228902e-15
1.161046472e-15
1.343083314e-15
9.590359041e-16
6.859170855e-16
1.139612103e-15
7.922952051e-16
9.688140494e-17
3.456301512e-16
-2.903067374e-16
1.06140456e-15
8.653515483e-16
6.830766119e-16
6.454994042e-16
9.233603644e-16
8.986832725e-16
1.335786561e-15
1.328307538e-15
1.040962293e-15
9.993430498e-16
8.232756326e-16
9.225649535e-16
7.892340731e-16
4.675606313e-16
8.690178515e-16
7.275774576e-16
9.399455222e-16
8.188706911e-16
8.046493393e-16
1.022598684e-15
1.092532005e-15
9.597989591e-16
1.149071509e-15
9.807484773e-16
7.395978224e-16
9.808418739e-16
1.265069576e-15
7.935699866e-16
4.877603365e-16
4.534683228e-16
7.628904741e-16
8.443362472e-16
9.432230313e-16
1.062397103e-15
1.590331069e-16
9.792070548e-16
7.077518798e-16
4.382502925e-16
9.946448273e-16
5.171197706e-16
5.9448073e-16
6.608812325e-16
5.530167374e-16
9.977341173e-16
4.472207908e-16
5.943448232e-16
5.439024917e-16
3.134352295e-16
3.414532171e-16
3.494634565e-16
8.17855846e-16
8.835997705e-16
2.289918899e-15
1.709372514e-15
2.632493343e-15
2.436926609e-15
2.344880104e-15
2.285805331e-15
2.28071101e-15
1.922077395e-15
1.898226361e-15
2.067572484e-15
2.075311943e-15
1.702316365e-15
1.678092019e-15
1.830503311e-15
1.63117992e-15
1.763583359e-15
1.935893096e-15
1.977587391e-15
2.214875237e-15
1.403833857e-15
1.647372256e-15
1.567540598e-15
1.726141631e-15
1.869213478e-15
1.798639911e-15
2.01460181e-15
3.035887809e-15
2.008894615e-15
1.735631888e-15
1.735294376e-15
1.682514275e-15
1.600577481e-15
1.670288682e-15
1.991277475e-15
2.329400335e-15
1.254372522e-15
1.371196326e-15
1.372558055e-15
1.368500815e-15
1.56999587e-15
8.603945449e-16
1.402302397e-15
1.80245181e-15
2.351693139e-15
7.287778427e-16
1.03202515e-15
1.631442673e-15
1.50319785e-15
1.766024199e-15
1.219976344e-15
8.469633578e-16
1.991058475e-15
1.780874377e-15
1.834574992e-15
1.418225632e-15
1.337217497e-15
1.572624587e-15
1.342289805e-15
1.769206967e-15
1.253314125e-15
1.498021363e-15
1.61034462e-15
1.429335168e-15
1.199228386e-15
9.822125838e-16
8.069867819e-16
1.12610029e-15
1.21648574e-15
1.90379545e-15
1.352109659e-15
1.869883968e-15
1.744975419e-15
1.865153977e-15
1.840593813e-15
1.054462764e-15
1.186899507e-15
9.466016604e-16
1.302238022e-15
1.196288428e-15
1.593973743e-15
1.847614111e-15
1.742299741e-15
1.99895226e-15
1.885832817e-15
1.960569966e-15
1.713528229e-15
1.768403924e-15
1.419770774e-15
1.356212946e-15
1.07107283e-15
1.60174748e-15
1.559758117e-15
1.435501054e-15
1.282597827e-15
1.354183432e-15
1.476808329e-15
1.447504321e-15
1.97233143e-15
1.814442569e-15
1.745282621e-15
1.606774846e-15
1.167185933e-15
7.379609523e-16
4.880570944e-16
1.09171436e-15
1.226404004e-15
1.354153037e-15
1.480544193e-15
1.38326753e-15
1.096782621e-15
1.612473433e-15
1.513677242e-15
1.314715687e-15
1.189209693e-15
1.354964831e-15
8.008126702e-16
6.130734057e-16
4.962141306e-16
7.259010174e-17
6.296253958e-16
5.84034509e-16
7.546189192e-16
9.148555378e-16
1.209196021e-15
1.582688081e-15
1.073897139e-15
1.428504998e-15
1.48874822e-15
1.103047649e-15
9.760100335e-16
6.800665758e-16
5.41369813e-16
8.442457629e-17
4.516831183e-16
-7.969639322e-17
9.423211782e-16
9.187597538e-16
7.844341901e-16
5.148035059e-16
9.832193421e-16
9.099177823e-16
1.170453946e-15
1.285978857e-15
1.311107887e-15
1.205650471e-15
8.380357074e-16
1.248061234e-15
7.998559752e-16
6.367897743e-16
4.532053159e-16
9.797894889e-16
1.204835592e-15
6.503849924e-16
1.029382847e-15
7.14379612e-16
8.781917687e-16
7.717175287e-16
9.309574309e-16
9.595496746e-16
8.662899563e-16
8.637551472e-16
1.118941845e-15
9.514767968e-16
6.592010958e-16
9.387173042e-16
3.492992241e-16
7.257377932e-16
1.06269667e-15
6.906652852e-16
6.015794003e-16
9.186187883e-16
7.607737521e-16
2.739157757e-16
6.90604193e-16
8.894123213e-16
9.754747146e-16
3.922514695e-16
6.014656041e-16
-8.461254169e-17
8.953107299e-16
1.142142927e-15
1.260012463e-15
-2.586126137e-18
7.792356201e-16
3.983075983e-16
1.344459791e-16
3.46934509e-16
-4.47997582e-17
4.086918679e-16
4.32154842e-16
1.658600779e-15
1.242447993e-15
1.845201086e-15
1.93795872e-15
1.943942834e-15
2.797871533e-15
2.624172312e-15
2.306960791e-15
2.036170902e-15
2.238159818e-15
2.44928914e-15
1.904313681e-15
2.09271104e-15
2.07885371e-15
2.415526288e-15
1.947470564e-15
1.515314034e-15
1.938252533e-15
2.163380557e-15
1.854854357e-15
1.830408657e-15
2.257861568e-15
1.589208966e-15
2.283686512e-15
2.11724234e-15
2.225554411e-15
1.790916003e-15
2.475201631e-15
1.896955504e-15
1.876103181e-15
2.056041114e-15
2.174143236e-15
1.921023991e-15
2.322352284e-15
2.562656391e-15
1.740468088e-15
1.875774929e-15
1.722521906e-15
1.68329624e-15
1.727666014e-15
1.296624244e-15
1.723678307e-15
1.995120256e-15
2.09292371e-15
1.393128817e-15
1.384618092e-15
1.41696759e-15
1.68781046e-15
1.754121995e-15
1.396847222e-15
1.518463158e-15
1.548385085e-15
2.002560621e-15
1.755916668e-15
8.370235707e-16
1.313043947e-15
1.702037689e-15
1.298757781e-15
1.610249957e-15
9.257166289e-16
1.132310172e-15
1.139143233e-15
1.79238834e-15
1.455257131e-15
1.403885525e-15
8.586610965e-16
1.438649744e-15
1.47753881e-15
1.635245841e-15
1.25360134e-15
1.607968892e-15
1.61061975e-15
1.297526724e-15
1.41752002e-15
1.184796284e-15
9.689127233e-16
1.308821289e-15
9.380028331e-16
1.323495426e-15
1.183690452e-15
1.80988616e-15
1.814813458e-15
1.86801905e-15
1.688436391e-15
1.717106926e-15
2.186028772e-15
1.601742532e-15
1.399727163e-15
1.497159151e-15
7.428772892e-16
1.741091656e-15
1.386016012e-15
1.542053792e-15
1.75987383e-15
1.620653142e-15
1.601401505e-15
1.808812844e-15
1.592629847e-15
2.090570946e-15
1.893748624e-15
1.634923182e-15
1.609323471e-15
9.724136526e-16
1.04161786e-15
1.455628174e-15
1.641610627e-15
1.56301953e-15
1.388399448e-15
1.327390681e-15
8.189312653e-16
1.485804105e-15
1.544682554e-15
1.72936313e-15
1.648004004e-15
1.756842067e-15
1.482065914e-15
9.979896925e-16
9.9091167e-16
4.027876097e-16
9.917312059e-16
1.093988762e-15
1.610315559e-15
1.214560045e-15
1.3885671e-15
1.385153943e-15
1.259672702e-15
1.723044667e-15
1.39401367e-15
1.796887519e-15
1.618568779e-15
1.274342789e-15
1.161026799e-15
6.745681901e-17
6.305025695e-16
4.478558922e-16
7.431791783e-16
8.976298042e-16
9.415762491e-16
1.001654643e-15
1.410526057e-15
1.270333098e-15
1.213893533e-15
1.422237521e-15
1.4574705e-15
1.367103113e-15
1.048237422e-15
9.132157164e-16
7.528673456e-16
6.913646431e-16
2.03106935e-16
5.334397082e-16
2.150734494e-16
5.942679767e-16
5.564128098e-16
7.298490579e-16
8.068138095e-16
9.714398451e-16
9.161966195e-16
1.15052082e-15
1.098815478e-15
1.461475449e-15
1.303464817e-15
8.759333041e-16
1.445427517e-15
6.647296196e-16
4.638286194e-16
7.050818457e-16
6.42136076e-16
9.56810441e-16
7.167737723e-16
1.68989229e-16
5.658159569e-16
5.054809233e-16
5.199493051e-16
1.088206281e-15
5.727498757e-16
1.431602388e-15
8.097507012e-16
1.276879638e-15
1.149162811e-15
1.063243625e-15
9.302493792e-16
1.015673658e-15
9.16766405e-16
3.230712744e-16
1.043926973e-15
7.989319392e-16
7.295645617e-16
4.509308937e-16
1.074501406e-15
2.934635084e-16
6.416007159e-16
1.648975266e-16
1.08167542e-15
1.130632737e-15
6.609130833e-16
5.166945866e-16
5.687118276e-16
7.973740891e-16
1.315424744e-15
7.002325059e-16
1.062970966e-15
1.079097415e-16
6.516036653e-16
1.597280289e-16
-1.075154378e-16
3.511079476e-16
-3.138667748e-16
6.778012841e-16
6.356396908e-16
1.07234285e-15
1.132307436e-15
1.88325868e-15
1.745680581e-15
1.552711162e-15
2.702662768e-15
2.230158301e-15
1.819045257e-15
1.588599183e-15
2.784165146e-15
2.773961635e-15
2.45606184e-15
2.03558233e-15
1.968471422e-15
2.495594087e-15
1.997115149e-15
2.088650623e-15
2.075453274e-15
1.714289522e-15
2.084340294e-15
2.207036549e-15
2.581645076e-15
1.644901429e-15
1.983267686e-15
2.095536173e-15
2.262091358e-15
1.448215665e-15
1.958045682e-15
2.185001409e-15
2.105871042e-15
1.819361691e-15
2.358983344e-15
2.265261107e-15
2.02992128e-15
2.261031393e-15
2.060904311e-15
2.085078699e-15
1.805624477e-15
1.714358918e-15
2.373293911e-15
2.256728709e-15
2.445553577e-15
2.286978992e-15
2.70217933e-15
1.813390346e-15
1.542933695e-15
1.963815085e-15
2.128684408e-15
1.857956404e-15
1.906754671e-15
1.812220416e-15
1.953729561e-15
1.647566288e-15
1.988140667e-15
6.205072954e-16
1.321942591e-15
1.550387534e-15
1.82330423e-15
1.568815731e-15
1.686440861e-15
1.043140197e-15
1.683147131e-15
1.639798217e-15
2.098750773e-15
1.619202366e-15
1.094820837e-15
1.287668754e-15
1.770765568e-15
1.513475295e-15
1.470979777e-15
1.528503272e-15
1.093424906e-15
9.28003511e-16
1.424847367e-15
1.995481793e-15
1.467405334e-15
1.554778484e-15
7.510212318e-16
1.09270013e-15
1.35579459e-15
1.433767759e-15
1.743007935e-15
1.474940864e-15
1.573224384e-15
1.433001394e-15
1.697923055e-15
1.563301911e-15
1.089116656e-15
1.31083245e-15
1.308027628e-15
1.266491294e-15
1.157252444e-15
1.369209266e-15
1.869634413e-15
1.701208177e-15
1.837373015e-15
1.518489261e-15
1.374288635e-15
1.668245336e-15
1.597965029e-15
1.357934679e-15
1.257927676e-15
1.268384789e-15
1.197657761e-15
1.624707964e-15
1.455794716e-15
1.568780796e-15
1.834129769e-15
1.935671359e-15
1.67923767e-15
1.498339252e-15
1.273281551e-15
1.934341698e-15
2.062360107e-15
1.56723983e-15
2.140779036e-15
1.375642264e-15
1.278085242e-15
6.890588349e-16
1.701738837e-15
1.553861849e-15
1.892028569e-15
1.452679908e-15
1.372705126e-15
9.211406359e-16
1.465980637e-15
1.459640397e-15
1.355357419e-15
1.996224765e-15
1.579905621e-15
1.745209334e-15
1.374413529e-15
1.007515236e-15
8.727607638e-16
7.958997433e-16
1.151902055e-15
8.454297969e-16
1.43368132e-15
1.359725588e-15
1.316816249e-15
1.57318944e-15
1.552283489e-15
1.830186313e-15
1.702253121e-15
1.688266971e-15
1.695840343e-15
9.209663083e-16
1.374440388e-15
8.220780538e-16
5.20403359e-16
7.98716648e-16
6.981383559e-16
7.991204052e-16
8.705620198e-16
8.476850622e-16
8.849523875e-16
1.554899439e-15
1.114229062e-15
1.161531861e-15
1.713213519e-15
1.359932307e-15
1.20808349e-15
1.141164866e-15
1.272063337e-15
7.455600348e-16
6.546274106e-16
5.778208377e-16
4.842590152e-16
4.424239971e-16
3.674827458e-16
7.406708754e-16
3.543021586e-16
8.214493061e-16
6.777109152e-16
8.370319174e-16
6.824206894e-16
1.135309817e-15
9.90517171e-16
1.338617022e-15
7.639949598e-16
1.097978314e-15
7.393670057e-16
1.306466168e-15
4.687378603e-16
7.922012939e-16
6.558569106e-16
5.869088504e-16
8.784723306e-16
3.766858328e-16
6.008576979e-16
1.416847673e-16
3.681717491e-16
7.897074138e-16
6.837119728e-16
9.094045692e-16
4.958336725e-16
1.175218508e-15
1.494948583e-15
1.328767619e-15
1.023060963e-15
8.185033524e-16
1.008007385e-15
1.151706246e-15
7.932496005e-16
4.465309612e-16
1.127225693e-15
5.089909597e-16
5.434128675e-16
1.056202867e-15
1.511425403e-15
1.905351724e-16
5.357097226e-16
1.888981511e-16
1.042207298e-15
1.022245785e-15
7.759499191e-16
6.655011786e-16
8.285154828e-16
1.081992979e-15
7.639626579e-16
5.908899387e-16
7.705639149e-16
1.197729826e-15
6.544445828e-16
6.323935426e-16
2.674544688e-16
-2.544499831e-16
1.171583698e-16
-4.355227637e-16
6.023271803e-16
1.160926441e-15
9.293807303e-16
1.248591726e-15
1.515697258e-15
1.447411876e-15
1.696462794e-15
2.216042604e-15
1.907293127e-15
1.51395573e-15
1.614234047e-15
2.852716517e-15
2.534952741e-15
2.166287928e-15
1.90660943e-15
1.772657163e-15
2.675176468e-15
2.714038455e-15
2.691189898e-15
2.248563467e-15
1.723471199e-15
2.035118515e-15
2.485013748e-15
2.286842265e-15
2.06588261e-15
1.59484696e-15
2.078360704e-15
2.023080093e-15
1.938221907e-15
2.281001036e-15
2.318525598e-15
2.43276776e-15
1.749378275e-15
1.968338126e-15
1.996447069e-15
2.198639672e-15
1.942740273e-15
1.595422882e-15
2.255465635e-15
2.316517222e-15
2.485203698e-15
1.811639939e-15
2.681272912e-15
2.483012317e-15
2.579654555e-15
3.042720677e-15
2.183360157e-15
1.662835468e-15
2.406370599e-15
1.640349754e-15
2.181782993e-15
2.185249582e-15
2.099842681e-15
2.507258498e-15
2.318877292e-15
3.214774885e-15
9.432948997e-16
1.713682872e-15
1.34315974e-15
2.184312036e-15