/*--------------------------------*- C++ -*----------------------------------*\
| =========                 |                                                 |
| \\      /  F ield         | OpenFOAM: The Open Source CFD Toolbox           |
|  \\    /   O peration     | Version:  2212                                  |
|   \\  /    A nd           | Website:  www.openfoam.com                      |
|    \\/     M anipulation  |                                                 |
\*---------------------------------------------------------------------------*/
FoamFile
{
    version     2.0;
    format      ascii;
    arch        "LSB;label=32;scalar=64";
    class       surfaceScalarField;
    location    "1.4";
    object      phi;
}
// * * * * * * * * * * * * * * * * * * * * * * * * * * * * * * * * * * * * * //

dimensions      [0 3 -1 0 0 0 0];

oriented        oriented;

internalField   nonuniform List<scalar> 
124950
(
0.0025
-1.914565829e-19
7.874377011e-19
0.0025
-6.078714887e-20
1.402830771e-18
0.0025
-2.820334205e-19
6.09196596e-19
0.0025
-4.757277445e-19
1.536782211e-19
0.0025
-8.016959125e-19
9.835065344e-19
0.0025
-4.299569246e-19
7.758403385e-19
0.0025
-8.597501966e-19
5.514250086e-19
0.0025
-4.147750787e-19
4.45569607e-19
0.0025
-4.720764412e-19
5.397257859e-19
0.0025
1.837451114e-20
-2.678431911e-19
0.0025
-7.738531552e-19
2.883380224e-19
0.0025
-1.609510797e-19
1.138736582e-18
0.0025
-7.845511225e-19
6.195308057e-19
0.0025
-4.926378643e-19
5.301947944e-19
0.0025
-6.705694147e-19
1.656748456e-19
0.0025
-1.085222414e-18
-1.931940104e-20
0.0025
-3.326436073e-19
8.594836211e-19
0.0025
-1.014531186e-19
3.841961192e-19
0.0025
-4.751096944e-19
-1.747184522e-19
0.0025
-1.500173308e-19
-4.083173066e-19
0.0025
-1.350989499e-18
-1.10955949e-18
0.0025
-4.622411167e-19
5.579867212e-19
0.0025
-7.278980678e-19
2.743635916e-19
0.0025
-5.449428577e-19
4.072349666e-19
0.0025
-7.965187594e-19
3.198477712e-19
0.0025
-1.185676864e-18
-6.931568693e-21
0.0025
-3.600173763e-19
9.441771918e-19
0.0025
-4.817483778e-19
2.788037394e-19
0.0025
-3.367301974e-19
4.68063046e-19
0.0025
-9.665891136e-19
-6.16944775e-19
0.0025
1.729771859e-19
9.488020286e-19
0.0025
-2.895218982e-19
5.108518737e-19
0.0025
-3.576384399e-20
2.022805656e-19
0.0025
-1.304257338e-19
1.484203347e-19
0.0025
4.152179746e-19
-1.001012644e-19
0.0025
-2.046235472e-18
-1.674479529e-18
0.0025
-1.457703306e-18
-4.622495582e-19
0.0025
-7.905728694e-19
-7.368046201e-19
0.0025
-1.084364743e-18
-2.056265031e-19
0.0025
-8.203202623e-19
1.796101468e-19
0.0025
-9.249179331e-19
-1.284385637e-19
0.0025
-7.513240809e-19
7.25235897e-19
0.0025
-6.345883045e-19
2.72516796e-19
0.0025
-6.481018696e-19
3.339652242e-19
0.0025
-8.679327833e-19
-4.749918253e-19
0.0025
-4.652768148e-19
5.058791048e-19
0.0025
-5.867352121e-19
4.734106343e-19
0.0025
-4.313680397e-19
4.480918982e-19
0.0025
-4.661322273e-19
1.823073748e-19
0.0025
8.212296617e-20
-5.821910012e-19
0.0025
6.059795831e-19
7.427714945e-19
0.0025
-4.111753768e-20
7.48555801e-19
0.0025
-2.12625082e-19
3.647305087e-19
0.0025
3.26573894e-19
3.43649237e-19
0.0025
6.599576063e-20
7.99964662e-21
0.0025
3.712096194e-19
2.385521873e-19
0.0025
-2.629403005e-18
-2.393429603e-18
0.0025
-2.0227259e-18
-7.913070867e-19
0.0025
-1.246458146e-18
-1.389647599e-18
0.0025
-1.607346525e-18
-6.445601907e-19
0.0025
-1.054164517e-18
-6.221007324e-19
0.0025
-8.345548546e-19
-1.963247576e-19
0.0025
-1.177037503e-18
4.828507797e-19
0.0025
-7.683523388e-19
6.882755338e-20
0.0025
-6.722382693e-19
-9.006536517e-20
0.0025
-7.644886285e-19
-1.456235165e-19
0.0025
-8.243666595e-19
5.859716477e-19
0.0025
-5.268820979e-19
5.805182026e-19
0.0025
-4.963189595e-19
4.74625425e-19
0.0025
-5.564340223e-19
-2.033242898e-19
0.0025
-4.211716385e-19
-7.334793377e-19
0.0025
3.112079525e-19
7.834012292e-19
0.0025
-2.130481289e-19
6.27591128e-19
0.0025
-4.876027599e-19
6.086158894e-19
0.0025
-1.548045402e-19
5.159323637e-19
0.0025
1.57961354e-19
-2.417256744e-19
0.0025
2.775485055e-20
-5.633006797e-20
0.0025
-2.830585139e-19
2.948286191e-19
0.0025
2.106319709e-19
5.06381863e-19
0.0025
-2.543578432e-19
5.929648291e-19
0.0025
2.452532614e-19
2.671695383e-19
0.0025
-1.300437004e-20
1.098481042e-19
0.0025
2.552635644e-19
6.470631752e-20
0.0025
1.814315395e-19
-2.886605015e-19
0.0025
-3.214826962e-18
-3.793629162e-18
0.0025
-2.597739831e-18
-1.264274462e-18
0.0025
-1.613999725e-18
-2.133372645e-18
0.0025
-1.576479412e-18
-3.466857546e-19
0.0025
-1.177204006e-18
-6.864617894e-19
0.0025
-8.915390936e-19
-7.848842762e-19
0.0025
-1.206017774e-18
9.944026835e-21
0.0025
-9.974844567e-19
-5.870727778e-19
0.0025
-1.085345045e-18
-4.490557428e-19
0.0025
-8.403703528e-19
-4.343841168e-20
0.0025
-9.035339262e-19
4.070058439e-19
0.0025
-7.617407384e-19
5.354740446e-19
0.0025
-7.981826931e-19
8.185857443e-20
0.0025
-4.031352119e-19
-2.623363879e-19
0.0025
-8.538850234e-19
-5.133856261e-19
0.0025
-2.442414959e-19
8.329853506e-19
0.0025
-6.934866766e-19
3.33025765e-19
0.0025
-5.98224649e-19
6.632380274e-19
0.0025
-3.495180779e-19
1.111901493e-19
0.0025
-1.784521748e-19
-4.896315728e-19
0.0025
-5.560559845e-19
-9.140115982e-19
0.0025
-2.323414108e-19
5.811768294e-19
0.0025
1.378849288e-19
5.891034413e-19
0.0025
-4.752261257e-19
6.166085214e-19
0.0025
-2.033213555e-19
3.8663822e-19
0.0025
-4.665614535e-19
-5.070077667e-20
0.0025
3.549075131e-19
2.62977425e-20
0.0025
1.64202041e-19
-5.547144097e-19
0.0025
-8.933381151e-20
5.041457049e-19
0.0025
-1.563560143e-19
1.418588525e-19
0.0025
1.138595989e-19
7.480896636e-19
0.0025
-1.045319931e-19
-2.863212301e-19
0.0025
-2.802646221e-19
2.363494847e-19
0.0025
1.852835275e-19
2.385220534e-19
0.0025
1.773226652e-19
2.261200299e-20
0.0025
3.759592664e-19
-2.445324995e-19
0.0025
-3.329777284e-18
-3.821538816e-18
0.0025
-2.798615022e-18
-2.34379166e-18
0.0025
-1.822576549e-18
-3.213712244e-18
0.0025
-1.936841452e-18
-8.871670458e-19
0.0025
-1.668165705e-18
-9.378300095e-19
0.0025
-8.885371999e-19
-1.254647448e-18
0.0025
-8.935849726e-19
-1.085315785e-19
0.0025
-1.131248848e-18
-3.027137143e-19
0.0025
-1.004390552e-18
-6.999595021e-19
0.0025
-6.181681641e-19
2.927528188e-22
0.0025
-7.978110808e-19
-3.524190183e-20
0.0025
-1.004124415e-18
1.888514578e-19
0.0025
-8.693446353e-19
-3.299864366e-19
0.0025
-7.313036167e-19
-3.371336675e-19
0.0025
-1.121259829e-18
-3.104312808e-19
0.0025
-8.012160469e-19
7.625002778e-19
0.0025
-6.930431107e-19
2.627912086e-19
0.0025
-7.885397556e-19
5.22780946e-19
0.0025
-2.231741064e-19
4.64734245e-20
0.0025
-4.907775763e-19
-4.094077295e-19
0.0025
-6.723295763e-19
-8.090345422e-19
0.0025
-2.301855498e-19
6.999653086e-19
0.0025
-1.703391344e-19
6.852765499e-19
0.0025
-6.855468671e-19
3.541951696e-19
0.0025
-7.239397573e-19
-6.964797199e-20
0.0025
-4.931965312e-19
-2.145903885e-19
0.0025
4.767579018e-21
-3.679075304e-19
0.0025
-8.73804463e-21
-4.972849483e-19
0.0025
-1.887147088e-19
5.632572461e-19
0.0025
-2.6101182e-19
3.339741862e-19
0.0025
-2.077494633e-20
9.020710466e-19
0.0025
-1.50710219e-19
3.664131822e-19
0.0025
-4.208259717e-19
1.06806159e-19
0.0025
-1.227840961e-19
-2.093832404e-19
0.0025
2.120515064e-19
-2.669062829e-19
0.0025
1.164769522e-19
-4.37230607e-19
0.0025
-1.613338475e-19
4.623814805e-19
0.0025
-9.747332245e-20
1.062487138e-20
0.0025
-3.048766378e-19
2.428814972e-19
0.0025
-4.73389885e-19
9.240550231e-20
0.0025
7.053989778e-21
-3.737388384e-20
0.0025
-4.187472841e-19
9.393108051e-20
0.0025
8.449760974e-20
-1.831643774e-19
0.0025
3.15933518e-19
3.817778702e-19
0.0025
7.657933137e-19
-2.187892963e-19
0.0025
-3.21607051e-18
-3.615134668e-18
0.0025
-2.873271289e-18
-2.734885512e-18
0.0025
-2.401218607e-18
-3.693284753e-18
0.0025
-2.821901657e-18
-2.134173587e-18
0.0025
-1.896987619e-18
-1.884482161e-18
0.0025
-1.167857942e-18
-2.406932465e-18
0.0025
-1.220491496e-18
-6.693967803e-19
0.0025
-1.634522623e-18
-6.275163033e-19
0.0025
-1.541532008e-18
-8.856134247e-19
0.0025
-4.772098237e-19
-5.767914211e-19
0.0025
-8.710642404e-19
-1.664554206e-19
0.0025
-8.9210027e-19
-1.577158803e-19
0.0025
-1.430483665e-18
-5.384353119e-19
0.0025
-6.678416771e-19
-5.31737278e-19
0.0025
-1.39930577e-18
-5.441353103e-19
0.0025
-1.287381496e-18
-6.458713528e-20
0.0025
-6.88582496e-19
5.960959367e-21
0.0025
-1.169246311e-18
4.551628659e-21
0.0025
-2.573380811e-19
-8.230643536e-20
0.0025
-9.686224472e-19
-3.09242698e-19
0.0025
-7.474390738e-19
-4.528829752e-19
0.0025
-7.870655979e-19
9.191004624e-19
0.0025
-4.010672304e-19
7.426836454e-19
0.0025
-5.130415465e-19
2.839607529e-19
0.0025
-7.749720528e-19
6.22355965e-20
0.0025
-2.607274985e-19
-1.709772674e-20
0.0025
-1.158358929e-19
-5.354902315e-19
0.0025
-5.385913078e-19
-4.871104316e-19
0.0025
-1.089312667e-19
8.077360482e-19
0.0025
-1.329723759e-19
5.328886565e-19
0.0025
-3.646262996e-19
5.799642839e-19
0.0025
-4.661015864e-19
2.853765908e-19
0.0025
-5.558697162e-19
-4.93616667e-20
0.0025
-1.404533606e-19
-3.827321881e-19
0.0025
1.993930725e-19
-1.772160735e-19
0.0025
3.12529943e-20
-3.987071309e-19
0.0025
3.310401988e-19
6.550255053e-19
0.0025
-2.380268132e-19
1.938238236e-19
0.0025
-2.102062021e-19
4.883296143e-19
0.0025
-3.627188994e-19
4.697232953e-19
0.0025
-3.923268707e-19
1.251677265e-20
0.0025
-1.886764357e-19
-6.771612377e-20
0.0025
-2.081388101e-19
-5.584403354e-19
0.0025
2.724171318e-19
6.697183602e-20
0.0025
3.560926334e-19
-3.298507384e-19
0.0025
-3.25645577e-19
2.320246996e-19
0.0025
-1.435019245e-19
6.685211079e-20
0.0025
-2.561141992e-19
-2.177834243e-20
0.0025
-5.424550182e-19
7.268253864e-20
0.0025
-2.878574953e-19
1.651166375e-19
0.0025
1.103216141e-19
2.889345503e-19
0.0025
-1.973926899e-19
-1.697563432e-19
0.0025
1.312639118e-19
-2.28998488e-19
0.0025
-3.850842743e-19
-4.591053424e-19
0.0025
7.674502631e-19
-1.135303582e-19
0.0025
-2.461077956e-18
-2.932640538e-18
0.0025
-2.777066838e-18
-2.521668407e-18
0.0025
-2.493525249e-18
-3.531455346e-18
0.0025
-3.115285035e-18
-2.630361107e-18
0.0025
-1.955555926e-18
-2.279842091e-18
0.0025
-1.665649489e-18
-3.150307113e-18
0.0025
-2.145273773e-18
-1.232699953e-18
0.0025
-2.062701529e-18
-1.803416584e-18
0.0025
-1.648985447e-18
-1.707279494e-18
0.0025
-4.340656535e-19
-1.207754303e-18
0.0025
-1.244757973e-18
-4.893993352e-19
0.0025
-1.173711438e-18
-5.443094195e-19
0.0025
-1.771927656e-18
-6.417088537e-19
0.0025
-1.011889647e-18
-7.195584891e-19
0.0025
-7.896579639e-19
-7.044324685e-19
0.0025
-7.248694105e-19
-3.778960331e-19
0.0025
-1.047336523e-18
-2.518088401e-19
0.0025
-1.055543363e-18
-3.890404986e-19
0.0025
-8.972257699e-19
-4.820886882e-19
0.0025
-1.011016009e-18
-1.433966295e-19
0.0025
-5.62839686e-19
-1.942621985e-19
0.0025
-7.611192754e-19
5.453479499e-19
0.0025
-8.500420116e-19
1.605856532e-19
0.0025
-4.701842315e-19
2.381509188e-19
0.0025
-7.229613195e-19
-7.674146334e-20
0.0025
-5.429968632e-19
-3.911508491e-20
0.0025
-4.057197704e-19
-3.856576133e-19
0.0025
-1.039540989e-18
-4.660266178e-19
0.0025
-1.282994751e-19
1.103412288e-18
0.0025
-4.042347014e-19
6.593548905e-19
0.0025
-5.959640649e-19
3.092821447e-19
0.0025
-7.235362205e-19
3.075674324e-19
0.0025
-7.52091598e-19
-4.026583368e-19
0.0025
-2.983651544e-19
-5.471376248e-19
0.0025
-4.624758674e-20
-1.776424715e-19
0.0025
-4.720302517e-19
-6.278553856e-19
0.0025
4.10670054e-19
9.57358124e-19
0.0025
-1.744955145e-19
2.821243176e-19
0.0025
-4.010871207e-19
4.537650971e-19
0.0025
-3.243064322e-19
2.975890434e-19
0.0025
-5.579514427e-19
1.52076407e-19
0.0025
-2.173384742e-19
-1.579778759e-19
0.0025
-1.402507973e-19
-3.966317273e-19
0.0025
1.764350121e-19
-1.105214273e-19
0.0025
1.346227913e-19
-2.688638098e-19
0.0025
-1.7260079e-19
4.524014963e-19
0.0025
3.3870677e-19
2.809122611e-19
0.0025
-2.736159419e-19
3.535359484e-19
0.0025
-5.829507656e-19
6.21865957e-20
0.0025
-4.759929148e-19
7.86854825e-20
0.0025
-3.270951194e-19
-3.586317541e-20
0.0025
-2.482743252e-19
-1.597046906e-19
0.0025
3.156624488e-20
-2.985593493e-19
0.0025
6.672309044e-20
-2.116849799e-19
0.0025
8.02627971e-19
-1.448678137e-19
0.0025
3.547900078e-19
8.508649424e-19
0.0025
1.166483899e-19
1.62443668e-19
0.0025
-1.197254568e-19
3.658251271e-19
0.0025
2.019149778e-19
1.952718143e-19
0.0025
-6.941299101e-19
1.510792639e-19
0.0025
1.858009515e-19
1.392577221e-19
0.0025
-6.049151323e-20
-2.125712513e-19
0.0025
-3.119984672e-19
-2.585025321e-19
0.0025
-3.20961179e-20
1.836929294e-19
0.0025
3.737113066e-19
-2.969539725e-19
0.0025
3.234826339e-19
-1.490095792e-20
0.0025
-8.895969388e-19
-9.600922236e-19
0.0025
-2.100825429e-18
-2.23354696e-18
0.0025
-2.202924505e-18
-2.747733549e-18
0.0025
-2.827236115e-18
-2.608448907e-18
0.0025
-2.078950356e-18
-2.089101258e-18
0.0025
-1.501726879e-18
-2.631070844e-18
0.0025
-2.3255843e-18
-1.348556561e-18
0.0025
-2.134740088e-18
-2.235718389e-18
0.0025
-1.615471269e-18
-1.911838773e-18
0.0025
-5.791147649e-19
-1.705572073e-18
0.0025
-1.916047057e-18
-1.205016957e-18
0.0025
-1.638067428e-18
-9.848686416e-19
0.0025
-1.753889389e-18
-1.374084185e-18
0.0025
-6.512762095e-19
-9.170386589e-19
0.0025
-4.214576131e-19
-6.735856021e-19
0.0025
-6.907851253e-19
-3.814795725e-19
0.0025
-1.139310392e-18
-3.293504609e-19
0.0025
-1.028266775e-18
-2.985397925e-19
0.0025
-1.21894732e-18
-6.367289046e-19
0.0025
-1.132569445e-18
-8.000853315e-19
0.0025
-6.378967335e-19
-5.04647847e-19
0.0025
-7.634814366e-19
-1.385044543e-19
0.0025
-1.041281915e-18
-3.646807044e-19
0.0025
-7.534091416e-19
-1.092622397e-19
0.0025
-8.859743466e-19
-2.933666207e-19
0.0025
-9.215580407e-19
-4.571303823e-19
0.0025
-7.511006697e-19
-2.820896051e-19
0.0025
-1.175082211e-18
-7.331866844e-19
0.0025
-7.86647325e-19
1.056497075e-19
0.0025
-8.182407585e-19
4.627225452e-19
0.0025
-7.335672241e-19
1.779750265e-19
0.0025
-8.697303379e-19
1.504627976e-19
0.0025
-5.979836998e-19
-1.502901945e-19
0.0025
-3.103633335e-19
-5.463896994e-19
0.0025
-7.086189924e-19
-2.826138975e-19
0.0025
-8.315378853e-19
-7.896103674e-19
0.0025
9.890563986e-22
1.097958417e-18
0.0025
-3.48542328e-19
3.716512768e-19
0.0025
-8.190670263e-19
2.578418389e-19
0.0025
-5.640361834e-19
1.274568934e-19
0.0025
-6.731622439e-19
1.059528004e-19
0.0025
-4.841777459e-19
-9.537364869e-20
0.0025
1.75605602e-19
-5.413361049e-19
0.0025
-2.144380542e-19
-4.417142032e-19
0.0025
-3.728040494e-19
-4.393807459e-19
0.0025
3.947087921e-19
5.642766258e-19
0.0025
5.965560055e-20
3.416288602e-19
0.0025
-5.477325004e-20
4.776969458e-19
0.0025
-4.646834243e-19
7.726272388e-20
0.0025
-3.823350079e-19
1.858968119e-19
0.0025
-4.914404515e-19
-1.27030325e-19
0.0025
-2.351611961e-19
-2.340537407e-19
0.0025
-1.088363273e-19
-2.715222404e-19
0.0025
1.676608659e-19
-3.988451416e-20
0.0025
3.400095483e-19
-4.754090518e-19
0.0025
-5.812742837e-19
6.572447422e-19
0.0025
-2.281300061e-20
4.028050328e-20
0.0025
2.208907935e-20
4.587657805e-19
0.0025
-1.837000925e-19
5.754870578e-19
0.0025
-3.868645937e-19
2.269862137e-19
0.0025
-1.670348346e-19
-2.939070467e-20
0.0025
-2.331343026e-19
-2.213196752e-19
0.0025
-7.143216715e-20
-9.428505635e-20
0.0025
1.256712519e-19
-2.985314708e-20
0.0025
4.16496009e-19
-2.845942719e-19
0.0025
1.94073116e-19
-4.171984626e-19
0.0025
-5.756334491e-19
3.123790205e-19
0.0025
3.142452669e-19
1.560714956e-19
0.0025
-2.951396294e-19
5.029119761e-19
0.0025
4.289620831e-20
9.500646573e-20
0.0025
2.229835634e-19
9.181582026e-19
0.0025
2.247404832e-19
-1.086676676e-20
0.0025
-1.884594374e-19
-2.127948914e-19
0.0025
-1.602678538e-20
-2.666594815e-19
0.0025
-3.802732165e-19
-2.562768766e-19
0.0025
-3.350224732e-19
-4.682547474e-19
0.0025
7.344889866e-20
3.202295008e-19
0.0025
6.417994853e-19
-1.072950529e-19
0.0025
1.146240071e-19
4.793651601e-19
0.0025
-8.698358536e-19
-1.476926526e-18
0.0025
-1.377310328e-18
-1.11632343e-18
0.0025
-1.896576635e-18
-2.233426612e-18
0.0025
-1.851532953e-18
-1.684771428e-18
0.0025
-1.184491982e-18
-1.986183266e-18
0.0025
-1.885215699e-18
-1.272661821e-18
0.0025
-1.856033057e-18
-2.062392467e-18
0.0025
-1.570244051e-18
-1.639033233e-18
0.0025
-9.443590052e-19
-2.004310446e-18
0.0025
-1.949752273e-18
-1.39524239e-18
0.0025
-1.849751531e-18
-1.193087795e-18
0.0025
-1.670127925e-18
-1.768072018e-18
0.0025
-8.118953553e-19
-1.30193685e-18
0.0025
-4.245196866e-19
-5.818892046e-19
0.0025
-1.538457377e-18
-8.042097055e-19
0.0025
-1.495177087e-18
-9.140153795e-19
0.0025
-1.353776481e-18
-6.989617343e-19
0.0025
-1.200258467e-18
-9.017323986e-19
0.0025
-7.31395906e-19
-9.634983627e-19
0.0025
-6.038570071e-19
-7.412494935e-19
0.0025
-1.047632367e-18
-3.006631618e-19
0.0025
-8.590196313e-19
-4.249432598e-19
0.0025
-9.822222071e-19
-2.185876218e-19
0.0025
-1.013675381e-18
-2.159739293e-19
0.0025
-1.009650244e-18
-6.548167736e-19
0.0025
-7.547034958e-19
-3.723830632e-19
0.0025
-5.832006606e-19
-4.354485743e-19
0.0025
-1.976484908e-18
-1.09846716e-18
0.0025
-1.062043952e-18
-9.25976993e-20
0.0025
-6.996578634e-19
-3.210252431e-19
0.0025
-1.203268365e-18
3.794626664e-20
0.0025
-5.084569345e-19
-1.259211481e-19
0.0025
-4.907358971e-19
-6.611757106e-19
0.0025
-1.231117805e-18
-4.249922268e-19
0.0025
-8.882974822e-19
-8.428296984e-19
0.0025
-2.590933849e-19
6.600563299e-19
0.0025
-6.152607172e-19
4.261447536e-19
0.0025
-7.516664933e-19
1.179710298e-19
0.0025
-7.230784147e-19
2.880822935e-19
0.0025
-4.084210888e-19
8.343033003e-20
0.0025
-6.577593522e-19
-2.964420794e-19
0.0025
-3.375449943e-19
-6.64392619e-19
0.0025
-6.944406941e-19
-7.055286101e-19
0.0025
-8.481960384e-19
-6.100210885e-19
0.0025
3.55159165e-19
7.317553698e-19
0.0025
-5.161705076e-19
4.85009499e-19
0.0025
-2.571212855e-19
4.415923612e-19
0.0025
-5.9335723e-19
1.267646755e-19
0.0025
-4.025213013e-19
2.252840504e-21
0.0025
-8.617548414e-19
-1.072430946e-19
0.0025
-4.712234383e-19
-6.673957613e-19
0.0025
-2.58667818e-20
-4.198488806e-19
0.0025
-1.054197877e-19
-1.775604524e-19
0.0025
-4.006538762e-19
-8.174814326e-19
0.0025
-7.711645579e-19
-6.360101727e-20
0.0025
7.309333457e-20
3.176834476e-19
0.0025
-3.854779393e-20
2.55056282e-19
0.0025
-1.87904798e-19
1.704599291e-19
0.0025
-4.608563567e-19
9.893306853e-20
0.0025
-6.366584872e-19
-1.316062569e-19
0.0025
-3.029657626e-19
-2.498376866e-19
0.0025
-2.232667122e-19
-3.051703502e-19
0.0025
-1.930675549e-19
-2.789974219e-19
0.0025
-4.374721749e-20
-5.293463606e-19
0.0025
1.920155864e-19
-5.31239973e-19
0.0025
-1.408446728e-19
5.39399895e-19
0.0025
-5.906493995e-19
2.842860666e-19
0.0025
-8.462758777e-20
5.738388826e-19
0.0025
2.194336347e-19
2.972385902e-19
0.0025
-1.178091162e-19
3.202702851e-19
0.0025
-6.047981979e-20
3.297453296e-19
0.0025
-1.1316692e-19
-1.656563034e-19
0.0025
-1.686723354e-19
-5.752394016e-20
0.0025
-1.01694847e-19
-9.680851754e-20
0.0025
-1.023459596e-20
-2.477826608e-19
0.0025
2.826044276e-19
-1.359374774e-19
0.0025
6.542403655e-19
-3.100327463e-19
0.0025
4.479388492e-19
1.348307264e-18
0.0025
-2.813431463e-19
-3.764055278e-19
0.0025
3.20712999e-19
8.295172332e-19
0.0025
1.443285432e-19
4.955767325e-19
0.0025
5.424543625e-19
5.531399587e-19
0.0025
-2.014435888e-19
-1.144824316e-19
0.0025
-2.950542395e-19
-1.201687737e-20
0.0025
-5.220025946e-20
-5.409684622e-19
0.0025
-5.575822236e-20
3.489675005e-20
0.0025
-2.271809033e-19
1.8416109e-19
0.0025
2.464554277e-19
6.486421228e-20
0.0025
8.658070889e-20
1.173906485e-19
0.0025
9.662343272e-19
1.807388567e-19
0.0025
3.117739033e-19
7.956189419e-19
0.0025
7.611373767e-20
-6.289300818e-19
0.0025
-1.070419165e-18
-1.188743529e-19
0.0025
-8.499205471e-19
-1.607852774e-18
0.0025
-1.221764836e-18
-1.380479514e-18
0.0025
-1.587531371e-18
-1.405223804e-18
0.0025
-1.479190481e-18
-1.780108603e-18
0.0025
-1.656551111e-18
-1.797234998e-18
0.0025
-1.496855677e-18
-1.47072897e-18
0.0025
-9.531736566e-19
-1.424323069e-18
0.0025
-1.427398185e-18
-1.484636552e-18
0.0025
-1.683223387e-18
-1.390590417e-18
0.0025
-1.642650666e-18
-1.573369772e-18
0.0025
-1.145397186e-18
-1.516549221e-18
0.0025
-5.7530974e-19
-7.530198243e-19
0.0025
-2.103935227e-18
-1.076367376e-18
0.0025
-1.551279217e-18
-1.13293509e-18
0.0025
-1.404992652e-18
-1.135060485e-18
0.0025
-1.39700858e-18
-1.301053137e-18
0.0025
-7.225422631e-19
-1.042583815e-18
0.0025
-8.627724475e-19
-7.654154306e-19
0.0025
-1.133485589e-18
-3.602262336e-19
0.0025
-1.056733623e-18
-4.773319526e-19
0.0025
-1.227379207e-18
-5.187953306e-19
0.0025
-1.076311614e-18
-6.667217376e-19
0.0025
-1.11158313e-18
-8.812962366e-19
0.0025
-7.598794524e-19
-6.091354684e-19
0.0025
-3.87243351e-19
-3.692338738e-19
0.0025
-1.967872819e-18
-4.994429004e-19
0.0025
-8.64495858e-19
-4.434162858e-19
0.0025
-7.89448091e-19
-3.111735027e-19
0.0025
-1.023569481e-18
-1.741244613e-19
0.0025
-8.912608049e-19
-6.019866997e-19
0.0025
-8.506459579e-19
-4.416301736e-19
0.0025
-9.078320126e-19
-5.57953755e-19
0.0025
-6.996522958e-19
-3.766745209e-19
0.0025
-1.043510644e-18
5.834159568e-19
0.0025
-9.595253998e-19
-1.313081569e-20
0.0025
-5.938219635e-19
-3.457636097e-19
0.0025
-8.168782075e-19
9.967805479e-20
0.0025
-8.252793357e-19
-2.544033978e-19
0.0025
-5.199855297e-19
-4.427769946e-19
0.0025
-8.710509411e-19
-4.655395983e-19
0.0025
-1.190772976e-18
-7.388880218e-19
0.0025
-5.70144241e-19
-8.597313192e-19
0.0025
-5.778809408e-19
1.156207415e-19
0.0025
-7.423421378e-19
5.276845514e-19
0.0025
-8.036758837e-19
2.369814431e-19
0.0025
-6.323920008e-19
3.325581274e-20
0.0025
-7.320214833e-19
-1.311191464e-19
0.0025
-1.004238955e-18
-4.627080482e-19
0.0025
-4.845855113e-19
-5.909444902e-19
0.0025
-3.929505415e-19
-6.573881639e-19
0.0025
-7.878852466e-19
-6.223855323e-19
0.0025
-1.001950024e-18
-1.067776263e-18
0.0025
-5.652066681e-19
-8.292098864e-20
0.0025
-1.971673446e-21
3.314070297e-19
0.0025
-5.826153507e-19
2.098334563e-19
0.0025
-6.133682101e-19
-3.877570051e-20
0.0025
-8.083545669e-19
-4.233437882e-19
0.0025
-8.961355696e-19
4.369001314e-20
0.0025
-6.575484026e-19
-4.030105968e-19
0.0025
-3.657615549e-19
-7.711725522e-19
0.0025
-2.669725536e-19
-3.633054792e-19
0.0025
-3.179251817e-19
-4.132265058e-19
0.0025
8.477426017e-20
-4.113801227e-19
0.0025
-3.347977071e-19
7.839304198e-19
0.0025
-3.466481926e-19
3.630545883e-20
0.0025
-1.246092974e-19
4.161718805e-19
0.0025
1.311842548e-19
5.146386685e-20
0.0025
-2.495833892e-19
-7.293009758e-20
0.0025
-4.667563765e-19
2.377142471e-19
0.0025
-3.825913433e-19
-3.127133411e-19
0.0025
-4.342267463e-19
-1.109185195e-19
0.0025
-2.42894382e-20
-5.081994386e-20
0.0025
-9.843544632e-20
-1.436321738e-19
0.0025
5.176712838e-19
-1.06609949e-19
0.0025
5.480184967e-19
-4.169245401e-19
0.0025
2.539806392e-19
8.601411681e-19
0.0025
-3.632060191e-19
5.122294563e-19
0.0025
4.434253116e-20
4.307121131e-19
0.0025
-2.511560689e-21
3.217935596e-19
0.0025
1.901653756e-19
1.437164515e-19
0.0025
-1.710131987e-19
9.269794661e-20
0.0025
-8.409476031e-19
-2.439458336e-19
0.0025
-1.166241794e-19
-2.595858243e-19
0.0025
-3.35166548e-19
-6.881701494e-20
0.0025
-1.206225819e-19
2.182659096e-19
0.0025
4.540968671e-19
-9.692903736e-20
0.0025
6.16250883e-19
2.296318982e-19
0.0025
9.871288979e-19
5.937644879e-20
0.0025
8.715435019e-19
5.861900991e-19
0.0025
-3.619296315e-19
6.484563403e-19
0.0025
6.796526157e-19
1.910824754e-19
0.0025
-2.728374578e-19
3.889227442e-19
0.0025
-4.604145038e-20
-1.182046391e-19
0.0025
-5.309093175e-19
-2.326655777e-19
0.0025
-1.25130163e-19
-1.69068502e-19
0.0025
-2.005601627e-19
2.194631901e-19
0.0025
3.297040931e-19
-9.896171149e-20
0.0025
1.153387791e-19
1.625461371e-19
0.0025
-2.660411364e-19
1.489432266e-19
0.0025
2.824301819e-19
8.750881338e-20
0.0025
3.301418603e-20
-1.761096849e-19
0.0025
6.941243459e-19
2.277919884e-19
0.0025
3.989004513e-19
2.621197467e-19
0.0025
1.31564811e-19
-5.366226141e-19
0.0025
-1.007350026e-18
7.332723688e-20
0.0025
-3.432992564e-19
-9.564778033e-19
0.0025
-9.687872588e-19
-1.050769151e-18
0.0025
-1.446717066e-18
-9.339996326e-19
0.0025
-1.456712487e-18
-1.963468996e-18
0.0025
-1.33427305e-18
-1.393313079e-18
0.0025
-1.153249673e-18
-9.886146111e-19
0.0025
-1.151875508e-18
-1.179890148e-18
0.0025
-1.150745997e-18
-1.806772575e-18
0.0025
-1.209157037e-18
-1.499514964e-18
0.0025
-1.579217705e-18
-1.384995776e-18
0.0025
-1.201010394e-18
-1.32507957e-18
0.0025
-8.165347622e-19
-7.816432043e-19
0.0025
-1.765335869e-18
-1.230136916e-18
0.0025
-1.323827077e-18
-1.430909657e-18
0.0025
-1.487091535e-18
-1.355994629e-18
0.0025
-1.748600272e-18
-1.646496229e-18
0.0025
-8.755319969e-19
-1.216887949e-18
0.0025
-1.02663241e-18
-9.587203296e-19
0.0025
-1.486197644e-18
-4.388210068e-19
0.0025
-1.433250025e-18
-8.378987758e-19
0.0025
-1.374263423e-18
-1.015473879e-18
0.0025
-1.164109106e-18
-8.305632151e-19
0.0025
-8.782048339e-19
-1.149245056e-18
0.0025
-1.05235195e-18
-1.001762628e-18
0.0025
-1.20958637e-18
-1.193252818e-18
0.0025
-1.792957243e-18
-5.204912528e-19
0.0025
-1.019484155e-18
-5.135844362e-19
0.0025
-1.024317298e-18
-4.103922003e-19
0.0025
-1.153655867e-18
-5.658029326e-19
0.0025
-8.619661041e-19
-9.92195326e-19
0.0025
-1.192498135e-18
-6.929601351e-19
0.0025
-8.325276916e-19
-5.535928815e-19
0.0025
-3.900305596e-19
-4.015742187e-20
0.0025
-1.681263924e-18
2.594770023e-20
0.0025
-1.464257141e-18
-3.007789926e-19
0.0025
-4.25314807e-19
-4.063604284e-19
0.0025
-1.078359547e-18
-2.684378672e-19
0.0025
-1.240070985e-18
-7.117423923e-19
0.0025
-8.242305682e-19
-7.769026847e-19
0.0025
-1.303462839e-18
-6.216771139e-19
0.0025
-1.234459969e-18
-9.781984094e-19
0.0025
-7.187601219e-19
-5.819272853e-19
0.0025
-1.206695845e-18
1.317677981e-19
0.0025
-8.947323e-19
5.044057582e-19
0.0025
-1.004818271e-18
-2.141199767e-19
0.0025
-5.294391553e-19
-3.193763306e-19
0.0025
-9.2676786e-19
1.595380264e-20
0.0025
-9.592970591e-19
-8.150758125e-19
0.0025
-7.870821277e-19
-6.195347431e-19
0.0025
-8.704277237e-19
-5.874825276e-19
0.0025
-9.955907063e-19
-7.74580337e-19
0.0025
-7.446627315e-19
-7.287386105e-19
0.0025
-2.828628384e-19
3.554443152e-19
0.0025
-4.561837287e-19
3.333772637e-19
0.0025
-5.873964449e-19
3.101502091e-19
0.0025
-7.149592824e-19
1.969463213e-19
0.0025
-7.423280179e-19
-4.237916285e-19
0.0025
-1.018708729e-18
-1.644003659e-19
0.0025
-6.90030635e-19
-4.500905687e-19
0.0025
-4.379577034e-19
-7.67196622e-19
0.0025
-3.039316124e-19
-2.585136764e-19
0.0025
-5.366664511e-19
-5.173694997e-19
0.0025
-3.358640186e-19
-3.997696739e-19
0.0025
-8.568387987e-20
8.769816249e-19
0.0025
-2.69690708e-19
-1.75373846e-19
0.0025
-3.141951821e-19
1.764271793e-19
0.0025
-5.412825691e-19
1.386962131e-20
0.0025
-4.959326119e-19
-1.684510189e-19
0.0025
-6.649522681e-19
-1.234252549e-19
0.0025
-9.446673716e-19
-3.824187562e-19
0.0025
-5.052971233e-19
-2.87398654e-19
0.0025
7.327240635e-20
-4.498673136e-19
0.0025
-2.405091945e-19
-2.63942034e-19
0.0025
-4.365343264e-20
-1.789905275e-19
0.0025
1.713467625e-19
-2.276893466e-19
0.0025
1.245010781e-19
4.851406763e-19
0.0025
-6.821996847e-19
5.261720619e-19
0.0025
7.750762095e-20
2.23389051e-19
0.0025
-3.743963402e-20
2.431708809e-20
0.0025
-1.771874444e-20
-1.775216265e-19
0.0025
-2.243700687e-19
2.119735696e-19
0.0025
-7.37540234e-19
-4.969862762e-22
0.0025
-5.70349364e-20
3.255394743e-20
0.0025
-3.119327129e-19
-1.666594945e-19
0.0025
-9.057409907e-20
-5.922325982e-21
0.0025
3.756989717e-20
-1.951323147e-19
0.0025
4.638494998e-19
3.672969022e-20
0.0025
7.869332511e-19
-7.966553455e-20
0.0025
1.87872148e-19
7.48378444e-19
0.0025
1.147606902e-19
9.073519672e-19
0.0025
3.127265928e-19
3.644101347e-19
0.0025
-2.258394377e-19
2.424809593e-19
0.0025
-9.886941936e-20
-8.979462648e-21
0.0025
-2.418686713e-19
-1.049616086e-19
0.0025
-4.993697838e-19
4.079035518e-20
0.0025
-9.794940666e-20
-1.806008228e-19
0.0025
-3.282543625e-19
-1.191214365e-19
0.0025
-8.921576081e-20
-5.586846919e-20
0.0025
-2.48016292e-19
1.207956491e-19
0.0025
5.414768589e-19
5.731016329e-20
0.0025
5.834961816e-19
-1.376834601e-19
0.0025
7.374782501e-19
1.895629843e-20
0.0025
-2.809463095e-19
-1.106339038e-19
0.0025
9.261541199e-21
8.079380654e-19
0.0025
2.123962558e-19
9.182595457e-20
0.0025
7.868434079e-20
1.233422187e-19
0.0025
-3.661730654e-19
5.095674147e-22
0.0025
-3.004694686e-20
-1.606129435e-20
0.0025
8.091393359e-20
-1.183253108e-19
0.0025
-1.997162632e-19
-3.611612214e-19
0.0025
-4.971724921e-19
2.102108329e-19
0.0025
4.058541401e-19
-9.844575243e-20
0.0025
-2.200362362e-19
4.684657874e-19
0.0025
1.256245534e-19
-1.441071696e-20
0.0025
2.883415427e-19
8.638924543e-20
0.0025
-9.712784311e-20
-2.936802692e-19
0.0025
3.358884008e-19
4.932385739e-19
0.0025
8.266517729e-19
5.850511237e-20
0.0025
-1.772154363e-19
-7.982447986e-19
0.0025
-3.303234773e-19
1.657364338e-19
0.0025
-2.192035457e-20
-4.700912335e-19
0.0025
-7.564992396e-19
-9.541589885e-19
0.0025
-1.341965337e-18
-5.954494107e-19
0.0025
-1.069856804e-18
-1.448234002e-18
0.0025
-9.576107031e-19
-1.074607313e-18
0.0025
-9.497697114e-19
-8.670123708e-19
0.0025
-1.383977644e-18
-1.021247677e-18
0.0025
-1.07132624e-18
-1.684318645e-18
0.0025
-1.228310044e-18
-1.608316522e-18
0.0025
-1.200631811e-18
-9.252517388e-19
0.0025
-1.041527281e-18
-1.023854187e-18
0.0025
-9.365922965e-19
-6.564560814e-19
0.0025
-9.954283755e-19
-1.296492532e-18
0.0025
-8.486740931e-19
-1.452237568e-18
0.0025
-1.10215191e-18
-9.369579604e-19
0.0025
-1.20888007e-18
-1.086052349e-18
0.0025
-7.552553849e-19
-1.056102862e-18
0.0025
-9.69283748e-19
-7.70473999e-19
0.0025
-1.564477158e-18
-8.62468746e-19
0.0025
-1.383921393e-18
-1.164580736e-18
0.0025
-1.060569316e-18
-1.064264244e-18
0.0025
-1.09037356e-18
-8.325568391e-19
0.0025
-8.855572688e-19
-1.224159884e-18
0.0025
-1.106656545e-18
-1.421120285e-18
0.0025
-1.778358473e-18
-1.81903889e-18
0.0025
-1.269760277e-18
-3.253129097e-19
0.0025
-1.113970586e-18
-6.617553437e-19
0.0025
-1.157663628e-18
-6.123085913e-19
0.0025
-1.285917093e-18
-8.56920237e-19
0.0025
-9.254865202e-19
-1.369673383e-18
0.0025
-1.353101335e-18
-9.707330493e-19
0.0025
-1.087306889e-18
-8.23720281e-19
0.0025
-3.301971543e-19
-4.396278892e-19
0.0025
-2.041575698e-18
-1.609905732e-19
0.0025
-1.087202485e-18
-4.257351032e-19
0.0025
-7.589990331e-19
-5.087544488e-19
0.0025
-1.321060872e-18
-2.918571801e-19
0.0025
-1.03982229e-18
-8.33135756e-19
0.0025
-7.631760909e-19
-8.711178502e-19