/*--------------------------------*- C++ -*----------------------------------*\
| =========                 |                                                 |
| \\      /  F ield         | OpenFOAM: The Open Source CFD Toolbox           |
|  \\    /   O peration     | Version:  2212                                  |
|   \\  /    A nd           | Website:  www.openfoam.com                      |
|    \\/     M anipulation  |                                                 |
\*---------------------------------------------------------------------------*/
FoamFile
{
    version     2.0;
    format      ascii;
    arch        "LSB;label=32;scalar=64";
    class       surfaceScalarField;
    location    "1.4";
    object      phiHbyA;
}
// * * * * * * * * * * * * * * * * * * * * * * * * * * * * * * * * * * * * * //

dimensions      [0 3 -1 0 0 0 0];

oriented        oriented;

internalField   nonuniform List<scalar> 
124950
(
0.0025
-1.544722236e-19
6.028814339e-19
0.0025
-1.000670073e-19
1.227204426e-18
0.0025
-2.517444419e-19
5.428318584e-19
0.0025
-3.217385383e-19
8.981505091e-20
0.0025
-4.401178741e-19
1.128670596e-18
0.0025
-2.118922844e-19
8.53552348e-19
0.0025
-6.464245411e-19
6.432020768e-19
0.0025
-2.908755795e-19
5.254793358e-19
0.0025
-2.960665575e-19
2.326888654e-19
0.0025
-7.180513368e-20
-1.224094664e-19
0.0025
-7.369733007e-19
3.705190108e-19
0.0025
-3.232747536e-19
8.691109948e-19
0.0025
-8.38923751e-19
7.204138603e-19
0.0025
-4.837127672e-19
4.740337448e-19
0.0025
-5.871869694e-19
4.523423187e-19
0.0025
-6.759879152e-19
-1.417641366e-19
0.0025
-1.90410311e-19
6.963261694e-19
0.0025
-2.206316999e-19
2.002943262e-19
0.0025
-1.759646832e-19
5.122820543e-20
0.0025
-1.586888225e-19
-3.008325573e-19
0.0025
-1.579495423e-18
-1.146425522e-18
0.0025
-7.2991188e-19
4.691620569e-19
0.0025
-8.617812644e-19
1.318994124e-19
0.0025
-6.06103565e-19
3.277624751e-19
0.0025
-7.683309052e-19
5.066625569e-19
0.0025
-1.153345428e-18
-1.349905113e-19
0.0025
-4.896167827e-19
8.554588063e-19
0.0025
-5.053409644e-19
2.421269011e-19
0.0025
-5.766920635e-19
1.973190517e-19
0.0025
-7.067115989e-19
-6.131165759e-19
0.0025
2.549520089e-19
7.02425036e-19
0.0025
-2.310450901e-19
3.824266289e-19
0.0025
-9.946587708e-20
1.080823597e-19
0.0025
-1.51425586e-19
7.085300011e-20
0.0025
2.215731974e-19
-1.753126492e-19
0.0025
-1.951610846e-18
-1.538656149e-18
0.0025
-1.513923532e-18
-3.615393354e-19
0.0025
-8.80477969e-19
-7.950022211e-19
0.0025
-9.484307528e-19
-1.01071262e-19
0.0025
-8.936993058e-19
1.048781721e-19
0.0025
-9.91650012e-19
-9.027725468e-20
0.0025
-7.728436938e-19
7.292901231e-19
0.0025
-6.121191105e-19
2.994729928e-19
0.0025
-7.797726042e-19
1.794327804e-19
0.0025
-8.628330566e-19
-6.074427999e-19
0.0025
-1.337955494e-19
6.965516434e-19
0.0025
-4.369998252e-19
5.759490945e-19
0.0025
-3.157453278e-19
3.439908737e-19
0.0025
-5.394511236e-19
4.406804732e-20
0.0025
1.99570712e-19
-4.768107135e-19
0.0025
3.833021504e-19
4.924057901e-19
0.0025
3.644133694e-20
6.047900696e-19
0.0025
-1.694887606e-19
1.108190713e-19
0.0025
1.031586293e-19
1.880878899e-19
0.0025
-3.299810419e-20
1.37068797e-20
0.0025
2.582978923e-19
1.53081696e-19
0.0025
-2.443483468e-18
-2.139712372e-18
0.0025
-1.871742186e-18
-7.504214534e-19
0.0025
-1.246551355e-18
-1.379942075e-18
0.0025
-1.444090502e-18
-4.676022388e-19
0.0025
-1.034041067e-18
-5.6505176e-19
0.0025
-8.092156278e-19
-2.485904091e-19
0.0025
-1.103489262e-18
5.805498407e-19
0.0025
-6.399821851e-19
1.268359684e-20
0.0025
-7.270292946e-19
-7.521589255e-20
0.0025
-8.543907674e-19
-2.124055753e-19
0.0025
-6.414423125e-19
5.312483162e-19
0.0025
-6.069064679e-19
6.115448736e-19
0.0025
-4.697792914e-19
3.710950493e-19
0.0025
-6.371026888e-19
-2.11519362e-19
0.0025
-2.921923818e-19
-6.978393058e-19
0.0025
9.583365491e-20
7.660040656e-19
0.0025
-9.085426001e-20
6.483666855e-19
0.0025
-4.196302757e-19
3.646689937e-19
0.0025
-1.790276995e-19
3.243723258e-19
0.0025
3.132174734e-20
-1.35140626e-19
0.0025
1.469770011e-19
-9.803237863e-20
0.0025
-1.269047544e-19
2.198453183e-19
0.0025
1.640567995e-19
4.577502595e-19
0.0025
-8.166484071e-20
2.764598373e-19
0.0025
2.257960284e-19
2.130176675e-19
0.0025
-1.350101584e-19
1.822580452e-19
0.0025
2.229724075e-19
6.714475807e-20
0.0025
1.562069956e-19
-8.251114574e-20
0.0025
-3.049958592e-18
-3.528540675e-18
0.0025
-2.379733958e-18
-1.099788327e-18
0.0025
-1.516949941e-18
-1.963434151e-18
0.0025
-1.582504889e-18
-4.98564055e-19
0.0025
-1.21927353e-18
-7.178638199e-19
0.0025
-9.32798056e-19
-6.455254109e-19
0.0025
-1.277723333e-18
5.923580241e-20
0.0025
-9.624238235e-19
-4.515432297e-19
0.0025
-9.867410199e-19
-5.352596176e-19
0.0025
-8.493397409e-19
-1.701936055e-19
0.0025
-1.014087699e-18
4.135097634e-19
0.0025
-7.795362688e-19
5.37406191e-19
0.0025
-6.117364365e-19
1.164653482e-19
0.0025
-4.381689361e-19
-2.122707653e-19
0.0025
-8.269834037e-19
-5.255014167e-19
0.0025
-3.688748958e-19
8.396136044e-19
0.0025
-4.503540249e-19
4.275418056e-19
0.0025
-6.147596494e-19
4.40245718e-19
0.0025
-4.424403435e-19
1.664419094e-19
0.0025
-1.956740089e-19
-4.382610508e-19
0.0025
-4.11112729e-19
-6.368300665e-19
0.0025
-1.455808736e-19
6.724591894e-19
0.0025
3.205257385e-20
6.453880333e-19
0.0025
-3.175232224e-19
4.619392814e-19
0.0025
-4.607121548e-20
3.306278343e-19
0.0025
-3.552349606e-19
3.205196565e-22
0.0025
1.727041544e-19
-3.664726068e-20
0.0025
2.619001167e-19
-2.5629114e-19
0.0025
-2.304176613e-19
3.079245754e-19
0.0025
-1.219495746e-19
1.223380472e-19
0.0025
9.63952258e-20
4.286387168e-19
0.0025
6.521505439e-20
-1.309668234e-19
0.0025
-9.021557749e-20
2.754199893e-19
0.0025
2.993830281e-20
2.269884086e-19
0.0025
1.310594229e-19
1.886607944e-19
0.0025
3.116307033e-19
-2.32240843e-19
0.0025
-3.215364276e-18
-3.85169006e-18
0.0025
-2.911611522e-18
-2.226200169e-18
0.0025
-1.804671803e-18
-3.155136607e-18
0.0025
-1.878347654e-18
-8.491625857e-19
0.0025
-1.577463262e-18
-1.011823727e-18
0.0025
-1.035165682e-18
-1.202013491e-18
0.0025
-1.143022198e-18
-8.933369593e-20
0.0025
-9.666226452e-19
-4.205955833e-19
0.0025
-1.132939915e-18
-5.988121614e-19
0.0025
-6.969970392e-19
-3.068215673e-19
0.0025
-1.126396753e-18
1.224343568e-19
0.0025
-9.673528826e-19
8.450260797e-20
0.0025
-1.0741624e-18
-3.744709024e-19
0.0025
-5.909801828e-19
-3.115001981e-19
0.0025
-9.781097778e-19
-3.513556453e-19
0.0025
-7.812205837e-19
7.68212821e-19
0.0025
-8.037956807e-19
2.392035148e-19
0.0025
-8.318551263e-19
3.897079231e-19
0.0025
-2.044076464e-19
1.013144494e-19
0.0025
-5.210358982e-19
-4.664641212e-19
0.0025
-6.905540978e-19
-7.49970514e-19
0.0025
-2.273418981e-19
7.600105641e-19
0.0025
-2.410319813e-19
6.762767056e-19
0.0025
-5.459301003e-19
3.507900726e-19
0.0025
-5.208875454e-19
1.326170607e-19
0.0025
-4.391055242e-19
-2.468605252e-19
0.0025
-9.609491374e-20
-2.558229772e-19
0.0025
-2.784879526e-20
-5.545630084e-19
0.0025
-3.829525477e-20
5.686661078e-19
0.0025
-2.603590734e-19
4.253641556e-19
0.0025
-9.150192392e-20
6.458628294e-19
0.0025
-9.454629291e-20
1.564178685e-19
0.0025
-4.175607597e-19
1.92478553e-19
0.0025
2.319349449e-20
-8.542628845e-20
0.0025
2.167501028e-19
4.147994168e-20
0.0025
2.257687934e-19
-4.111493808e-19
0.0025
-1.104299393e-19
3.528166667e-19
0.0025
-1.51379254e-19
7.300935014e-20
0.0025
-1.885649141e-19
1.15312487e-19
0.0025
-2.989723215e-19
1.098637972e-19
0.0025
3.890492538e-20
1.403900299e-21
0.0025
-2.289909599e-19
1.469136537e-19
0.0025
-6.331397027e-21
-5.86354714e-20
0.0025
2.281503904e-19
1.39121023e-19
0.0025
4.458974468e-19
-1.584731331e-19
0.0025
-3.276323189e-18
-3.60234693e-18
0.0025
-3.037174692e-18
-2.711130275e-18
0.0025
-2.233667426e-18
-3.656236722e-18
0.0025
-2.622537882e-18
-1.902960525e-18
0.0025
-1.896065127e-18
-1.870693094e-18
0.0025
-1.194547521e-18
-2.24973e-18
0.0025
-1.296546217e-18
-5.004743366e-19
0.0025
-1.445770636e-18
-7.188930722e-19
0.0025
-1.468212615e-18
-8.647233288e-19
0.0025
-6.553864624e-19
-6.89638339e-19
0.0025
-8.455787348e-19
1.651560639e-21
0.0025
-9.916979287e-19
-2.439266805e-19
0.0025
-1.234186393e-18
-3.742964481e-19
0.0025
-7.333995169e-19
-4.760068697e-19
0.0025
-1.115958248e-18
-4.116441879e-19
0.0025
-1.028010917e-18
1.999967606e-19
0.0025
-9.087942898e-19
9.826838523e-21
0.0025
-1.02426005e-18
7.910587748e-20
0.0025
-3.431171312e-19
-1.039932305e-19
0.0025
-8.756192779e-19
-3.781180529e-19
0.0025
-6.325337237e-19
-4.235291731e-19
0.0025
-5.718522033e-19
9.276338867e-19
0.0025
-3.783652337e-19
6.833336013e-19
0.0025
-6.595564669e-19
2.704362165e-19
0.0025
-6.98738937e-19
-1.764050659e-20
0.0025
-3.766781664e-19
-1.192248339e-19
0.0025
-1.911649304e-19
-4.000741094e-19
0.0025
-4.799424408e-19
-7.429585436e-19
0.0025
1.088296486e-19
7.348422703e-19
0.0025
-2.627263815e-19
5.41691721e-19
0.0025
-4.175162375e-19
5.012701919e-19
0.0025
-4.017738145e-19
2.063868556e-19
0.0025
-6.340722723e-19
-1.171445784e-19
0.0025
-1.218751286e-19
-2.981563241e-19
0.0025
7.10218905e-20
-2.516452209e-19
0.0025
-5.362255924e-21
-4.015245885e-19
0.0025
2.168534314e-19
6.002967599e-19
0.0025
-1.483896551e-19
2.459757454e-19
0.0025
-2.48791503e-19
2.809989894e-19
0.0025
-3.845682846e-19
3.683766046e-19
0.0025
-2.275143216e-19
7.553741976e-20
0.0025
-2.080629706e-19
6.660922271e-20
0.0025
-5.179282493e-20
-3.217916242e-19
0.0025
2.05378215e-19
1.036863114e-19
0.0025
4.761865577e-19
-2.402264342e-19
0.0025
-4.081970638e-20
2.454453021e-19
0.0025
2.978608422e-20
1.906202765e-19
0.0025
-2.486364438e-19
-1.034038211e-19
0.0025
-3.80199763e-19
6.185718004e-20
0.0025
-1.417235853e-19
9.476921576e-20
0.0025
3.304734381e-20
2.960015178e-19
0.0025
-5.35519713e-20
-7.326489309e-20
0.0025
1.239744906e-20
-9.302983491e-20
0.0025
-9.42419016e-20
-2.898691502e-19
0.0025
5.57090001e-19
-1.436253373e-19
0.0025
-2.661069826e-18
-2.768517498e-18
0.0025
-2.821098421e-18
-2.479226821e-18
0.0025
-2.52373641e-18
-3.404522439e-18
0.0025
-2.955859118e-18
-2.520211769e-18
0.0025
-2.032426034e-18
-2.335142208e-18
0.0025
-1.590495609e-18
-2.956321375e-18
0.0025
-1.952820393e-18
-1.081505331e-18
0.0025
-1.944201453e-18
-1.732964296e-18
0.0025
-1.591399733e-18
-1.441290684e-18
0.0025
-3.508420119e-19
-1.122306453e-18
0.0025
-1.072059346e-18
-4.120053016e-19
0.0025
-1.340646394e-18
-6.472061104e-19
0.0025
-1.594695592e-18
-6.353712965e-19
0.0025
-9.531227934e-19
-7.054864846e-19
0.0025
-8.411779983e-19
-6.552414297e-19
0.0025
-6.852999631e-19
-2.882469451e-19
0.0025
-1.10023519e-18
-2.491766965e-19
0.0025
-1.066298078e-18
-3.112812872e-19
0.0025
-7.873081507e-19
-4.136120271e-19
0.0025
-1.063827597e-18
-2.940397262e-19
0.0025
-5.626768449e-19
-2.691173229e-19
0.0025
-8.384473696e-19
7.175800538e-19
0.0025
-6.841593205e-19
1.891252484e-19
0.0025
-6.657223093e-19
1.572284882e-19
0.0025
-7.334517375e-19
-9.493682009e-20
0.0025
-6.25284475e-19
-1.134546626e-19
0.0025
-3.181808238e-19
-3.974934204e-19
0.0025
-9.657787146e-19
-6.348314345e-19
0.0025
-1.860463603e-19
1.020554169e-18
0.0025
-2.813175793e-19
6.385711214e-19
0.0025
-5.346957931e-19
4.547568325e-19
0.0025
-7.110519166e-19
2.112786134e-19
0.0025
-6.922711979e-19
-2.658597122e-19
0.0025
-1.753900906e-19
-4.263027699e-19
0.0025
-1.361578915e-19
-3.615023479e-19
0.0025
-3.425700109e-19
-5.750987021e-19
0.0025
5.971988644e-19
7.258390849e-19
0.0025
-1.160994721e-19
4.553680496e-19
0.0025
-3.664004589e-19
4.198857602e-19
0.0025
-3.32381615e-19
2.705394936e-19
0.0025
-4.416834853e-19
7.259867448e-20
0.0025
-3.07235851e-19
-3.53744393e-20
0.0025
-8.364499275e-20
-3.756557336e-19
0.0025
1.434689712e-19
-1.054129348e-19
0.0025
1.059396935e-19
-3.760033506e-19
0.0025
-4.142259974e-20
4.294198287e-19
0.0025
2.567938453e-19
3.671299087e-19
0.0025
-1.49913058e-19
2.077871307e-19
0.0025
-5.599542594e-19
1.284356356e-19
0.0025
-3.302465695e-19
8.400695137e-20
0.0025
-2.199817485e-19
7.288346139e-20
0.0025
-2.932395698e-19
-7.405425914e-20
0.0025
3.691395022e-20
-1.927178946e-19
0.0025
6.881115293e-20
-2.350274774e-19
0.0025
8.099324034e-19
-1.742569278e-19
0.0025
-2.331957213e-20
6.148818735e-19
0.0025
1.512169718e-19
1.631996766e-19
0.0025
-6.944960519e-20
7.808128483e-20
0.0025
3.274369614e-21
2.852051869e-19
0.0025
-4.311159237e-19
5.103069784e-20
0.0025
3.022337172e-19
2.595155577e-19
0.0025
-2.457491548e-20
-6.400670288e-20
0.0025
-1.160846503e-19
-1.872772192e-19
0.0025
-2.157059208e-19
-6.210783437e-20
0.0025
2.495167232e-19
-2.993186597e-19
0.0025
1.40765928e-19
-1.639183691e-19
0.0025
-1.02942858e-18
-1.041520553e-18
0.0025
-2.132146724e-18
-2.093796526e-18
0.0025
-2.425358859e-18
-2.791674312e-18
0.0025
-2.642006878e-18
-2.536199282e-18
0.0025
-2.093019923e-18
-2.110536592e-18
0.0025
-1.680027356e-18
-2.76444103e-18
0.0025
-2.231498728e-18
-1.36939338e-18
0.0025
-2.106797295e-18
-2.236749486e-18
0.0025
-1.638072357e-18
-1.852772794e-18
0.0025
-6.382091607e-19
-1.651166166e-18
0.0025
-1.802098363e-18
-1.244204791e-18
0.0025
-1.63651141e-18
-9.965737113e-19
0.0025
-1.71754667e-18
-1.318109442e-18
0.0025
-8.037045626e-19
-1.025997045e-18
0.0025
-5.327041452e-19
-5.890742163e-19
0.0025
-8.866006476e-19
-5.005461933e-19
0.0025
-1.163466863e-18
-4.017925462e-19
0.0025
-1.164747125e-18
-3.08425441e-19
0.0025
-1.057938462e-18
-5.603762105e-19
0.0025
-1.011521902e-18
-5.334614446e-19
0.0025
-4.711407794e-19
-4.112085853e-19
0.0025
-1.029666098e-18
-1.875033571e-20
0.0025
-9.718984324e-19
-3.257550311e-19
0.0025
-7.700142787e-19
-1.177197045e-19
0.0025
-9.829457376e-19
-2.877079917e-19
0.0025
-8.744584536e-19
-4.027551312e-19
0.0025
-5.988939091e-19
-1.914567042e-19
0.0025
-1.009388057e-18
-6.375907554e-19
0.0025
-6.812648157e-19
5.078207065e-19
0.0025
-6.658323e-19
4.726177046e-19
0.0025
-5.863289688e-19
3.278705059e-19
0.0025
-8.344505057e-19
2.201426505e-19
0.0025
-5.205989082e-19
-7.914980253e-20
0.0025
-2.471709756e-19
-5.68507701e-19
0.0025
-6.313622403e-19
-3.892698741e-19
0.0025
-6.963626731e-19
-7.313317046e-19
0.0025
3.626300619e-19
9.891184447e-19
0.0025
-4.318930745e-19
5.245009805e-19
0.0025
-5.225164315e-19
3.931388652e-19
0.0025
-5.129455732e-19
1.085711673e-19
0.0025
-5.832748472e-19
9.287694757e-20
0.0025
-5.742318233e-19
-2.836673072e-19
0.0025
-1.054784755e-20
-5.477109595e-19
0.0025
-1.268633372e-19
-3.188765087e-19
0.0025
-1.727921172e-19
-6.416892387e-19
0.0025
1.209139228e-19
3.690529111e-19
0.0025
2.813843794e-19
4.259793954e-19
0.0025
-8.527040436e-20
4.439839028e-19
0.0025
-4.298304687e-19
1.551403651e-19
0.0025
-2.854829996e-19
8.323135463e-20
0.0025
-3.983602189e-19
1.174189416e-20
0.0025
-3.088897903e-19
-1.171435797e-19
0.0025
4.370364446e-20
-3.290126187e-19
0.0025
7.209595437e-20
-1.521898266e-19
0.0025
3.055720069e-19
-4.79418597e-19
0.0025
-3.784043752e-19
6.25885762e-19
0.0025
9.93072287e-20
2.454227626e-19
0.0025
5.91007664e-20
2.479051462e-19
0.0025
-1.251090251e-19
5.41041221e-19
0.0025
-4.645629642e-19
2.15021467e-19
0.0025
-3.857470484e-20
7.808247141e-20
0.0025
-1.272943925e-19
-1.673875433e-19
0.0025
-1.481157113e-19
-1.149462474e-19
0.0025
4.516311455e-21
-6.087858756e-20
0.0025
4.109011286e-19
-3.747410303e-19
0.0025
1.402982247e-19
-4.48598149e-19
0.0025
-1.939920643e-19
2.406529568e-19
0.0025
1.019726827e-19
3.620993942e-19
0.0025
-5.529915742e-20
3.925715064e-19
0.0025
2.705754325e-19
2.350348116e-19
0.0025
7.443792852e-20
4.874832545e-19
0.0025
1.571280877e-19
1.239840989e-20
0.0025
-1.690193307e-19
-1.120262551e-19
0.0025
-2.790609971e-20
-2.152264659e-19
0.0025
-2.041516969e-19
-1.632441752e-19
0.0025
-1.797988109e-19
-3.304998154e-19
0.0025
8.937393447e-20
1.213196967e-19
0.0025
4.082581989e-19
-8.839183184e-21
0.0025
2.031625899e-20
2.299295652e-19
0.0025
-9.101603804e-19
-1.516517703e-18
0.0025
-1.474995607e-18
-1.268382197e-18
0.0025
-1.938571311e-18
-2.152049344e-18
0.0025
-1.940907114e-18
-1.7928964e-18
0.0025
-1.471514033e-18
-2.178092503e-18
0.0025
-1.924316546e-18
-1.447531937e-18
0.0025
-1.91824827e-18
-2.126924325e-18
0.0025
-1.627410143e-18
-1.694344228e-18
0.0025
-1.045100462e-18
-1.859528975e-18
0.0025
-2.002958586e-18
-1.433241921e-18
0.0025
-1.773281764e-18
-1.222139309e-18
0.0025
-1.67020555e-18
-1.728329936e-18
0.0025
-8.538203405e-19
-1.362562098e-18
0.0025
-5.986625759e-19
-6.018237924e-19
0.0025
-1.612864681e-18
-8.210759236e-19
0.0025
-1.359570993e-18
-9.130619137e-19
0.0025
-1.339561927e-18
-6.225472329e-19
0.0025
-1.14347599e-18
-9.276817848e-19
0.0025
-8.008152587e-19
-7.379259234e-19
0.0025
-5.732163586e-19
-7.079817049e-19
0.0025
-1.17757827e-18
-2.816815503e-19
0.0025
-9.161139421e-19
-4.384636573e-19
0.0025
-9.474569905e-19
-1.208515575e-19
0.0025
-1.042534019e-18
-2.100971989e-19
0.0025
-9.191173495e-19
-4.877076308e-19
0.0025
-7.331706967e-19
-3.953941301e-19
0.0025
-5.327081821e-19
-4.288479148e-19
0.0025
-1.597285146e-18
-5.818004182e-19
0.0025
-9.309582557e-19
-7.750017481e-20
0.0025
-6.541025296e-19
-1.276190149e-19
0.0025
-1.018009809e-18
3.899004821e-20
0.0025
-6.100431729e-19
-9.155363233e-20
0.0025
-4.636440455e-19
-4.958097241e-19
0.0025
-1.004177959e-18
-4.629026232e-19
0.0025
-8.559566482e-19
-8.876037912e-19
0.0025
-1.809925821e-19
8.789768429e-19
0.0025
-6.932007418e-19
2.619324991e-19
0.0025
-7.733654486e-19
2.293032154e-19
0.0025
-6.144034532e-19
2.267131355e-19
0.0025
-5.041902675e-19
1.019902167e-19
0.0025
-6.329550659e-19
-2.541998722e-19
0.0025
-2.099924277e-19
-7.278303744e-19
0.0025
-5.739657208e-19
-5.818989055e-19
0.0025
-6.471830499e-19
-7.553304602e-19
0.0025
1.080290183e-19
5.438145468e-19
0.0025
-2.353500517e-19
6.096944052e-19
0.0025
-3.686368296e-19
3.064376605e-19
0.0025
-5.672583622e-19
2.476659662e-20
0.0025
-4.345430439e-19
-1.166821228e-20
0.0025
-7.727126446e-19
-7.204248008e-20
0.0025
-3.377832428e-19
-4.882045406e-19
0.0025
-2.6454156e-20
-4.397654077e-19
0.0025
-1.605992923e-19
-3.355085331e-19
0.0025
-1.5724585e-19
-7.204363864e-19
0.0025
-6.360371714e-19
9.553444257e-20
0.0025
1.541720249e-19
2.44408792e-19
0.0025
2.555579416e-20
2.297334124e-19
0.0025
-2.100117789e-19
2.664486479e-19
0.0025
-4.078923235e-19
7.531883089e-20
0.0025
-4.607552593e-19
-1.904822933e-20
0.0025
-2.360997216e-19
-1.493582476e-19
0.0025
-3.134260284e-19
-2.497741763e-19
0.0025
7.235896908e-20
-1.591961509e-19
0.0025
9.27944544e-20
-3.864604828e-19
0.0025
3.048470443e-19
-5.600897334e-19
0.0025
-2.754035981e-19
5.121789254e-19
0.0025
-3.84740055e-19
3.707454536e-19
0.0025
-8.119023087e-20
4.583991931e-19
0.0025
3.518662665e-19
3.462612003e-19
0.0025
2.425039807e-20
5.076200567e-19
0.0025
6.113632806e-20
2.766668986e-19
0.0025
-1.452583972e-19
-1.475456019e-19
0.0025
-9.865385577e-20
-9.81402803e-20
0.0025
-1.983335402e-19
-6.697688663e-20
0.0025
-7.053246499e-20
-3.067196644e-19
0.0025
3.082193019e-19
1.917054292e-20
0.0025
7.873069815e-19
-2.985236149e-19
0.0025
2.401470802e-19
9.742379075e-19
0.0025
-2.03274088e-19
-9.414389047e-20
0.0025
1.846741535e-19
4.259150432e-19
0.0025
9.09072949e-20
3.15610678e-19
0.0025
4.501391863e-19
2.815067781e-19
0.0025
-1.909474563e-19
-5.718970737e-21
0.0025
-2.771683509e-19
2.833450365e-20
0.0025
-9.317740799e-20
-3.640863822e-19
0.0025
5.781152769e-20
-6.396358095e-20
0.0025
-2.429524161e-19
2.590101493e-20
0.0025
1.05664083e-19
-8.182575068e-20
0.0025
1.547255859e-19
1.32113899e-19
0.0025
6.492629409e-19
2.636640888e-19
0.0025
1.685482648e-20
3.437380841e-19
0.0025
2.562150544e-20
-8.479616178e-19
0.0025
-1.135143195e-18
-2.147780831e-19
0.0025
-1.128396673e-18
-1.614718828e-18
0.0025
-1.22923794e-18
-1.319035523e-18
0.0025
-1.471952269e-18
-1.435471247e-18
0.0025
-1.553501097e-18
-1.693654269e-18
0.0025
-1.693260161e-18
-1.83642192e-18
0.0025
-1.517291787e-18
-1.483084965e-18
0.0025
-1.061182591e-18
-1.440990442e-18
0.0025
-1.610862141e-18
-1.512528636e-18
0.0025
-1.575529268e-18
-1.404117985e-18
0.0025
-1.653861589e-18
-1.655637605e-18
0.0025
-1.229520115e-18
-1.414870098e-18
0.0025
-7.184997955e-19
-7.718118468e-19
0.0025
-1.923238529e-18
-1.035407163e-18
0.0025
-1.525453585e-18
-1.210129849e-18
0.0025
-1.37666613e-18
-9.877589089e-19
0.0025
-1.28952671e-18
-1.319110349e-18
0.0025
-7.218992134e-19
-9.231309715e-19
0.0025
-8.972624714e-19
-9.124505601e-19
0.0025
-1.300291643e-18
-4.055709608e-19
0.0025
-1.159148717e-18
-6.29174426e-19
0.0025
-1.244569052e-18
-4.676294442e-19
0.0025
-1.087345675e-18
-5.452549079e-19
0.0025
-9.073844371e-19
-6.716979421e-19
0.0025
-8.4527295e-19
-6.230288505e-19
0.0025
-4.037126521e-19
-5.219514078e-19
0.0025
-1.964135891e-18
-4.681789604e-19
0.0025
-9.815014381e-19
-3.365424667e-19
0.0025
-7.261481852e-19
-2.817944269e-19
0.0025
-1.057161253e-18
-1.511921494e-19
0.0025
-9.030638613e-19
-4.903934957e-19
0.0025
-8.156290019e-19
-5.214176252e-19
0.0025
-9.430755982e-19
-6.288840234e-19
0.0025
-7.26862724e-19
-5.63459365e-19
0.0025
-1.198706334e-18
6.436949762e-19
0.0025
-1.037514003e-18
-3.114431817e-19
0.0025
-7.761461574e-19
-1.609622114e-19
0.0025
-7.799277037e-19
9.272958008e-20
0.0025
-6.48013036e-19
-1.488186398e-19
0.0025
-5.503545258e-19
-2.55855251e-19
0.0025
-8.224033324e-19
-6.325468269e-19
0.0025
-1.092929962e-18
-7.623292318e-19
0.0025
-5.166524312e-19
-7.237405483e-19
0.0025
-2.211349777e-19
3.751790661e-19
0.0025
-6.241285869e-19
5.56441403e-19
0.0025
-6.886468022e-19
3.400415994e-19
0.0025
-6.623629855e-19
-3.309241584e-20
0.0025
-6.283255923e-19
-7.066768936e-20
0.0025
-1.058116563e-18
-3.508701709e-19
0.0025
-3.90185555e-19
-6.621033966e-19
0.0025
-2.731191258e-19
-5.469032738e-19
0.0025
-6.805550878e-19
-6.441726908e-19
0.0025
-6.778606133e-19
-8.272939645e-19
0.0025
-4.785323716e-19
-3.812504024e-20
0.0025
-1.566832298e-20
2.784984768e-19
0.0025
-4.793883538e-19
2.349121724e-19
0.0025
-5.646503373e-19
3.039481429e-20
0.0025
-6.110871054e-19
-3.481642706e-19
0.0025
-8.390567418e-19
-1.038354294e-20
0.0025
-6.577803764e-19
-3.030478712e-19
0.0025
-3.115498545e-19
-5.686929636e-19
0.0025
-4.516381207e-20
-3.206414721e-19
0.0025
-1.724925986e-19
-3.854128533e-19
0.0025
2.592847225e-19
-3.733717767e-19
0.0025
-3.50279574e-19
6.743258521e-19
0.0025
-4.802629574e-19
-8.440728497e-20
0.0025
-9.09686953e-20
3.348302404e-19
0.0025
1.392690723e-19
1.695336316e-19
0.0025
-2.496093243e-19
6.089568452e-21
0.0025
-3.111584396e-19
2.872718472e-19
0.0025
-2.696885429e-19
-1.664683096e-19
0.0025
-3.215951127e-19
-1.022250751e-19
0.0025
-1.61151484e-19
-1.107082823e-19
0.0025
-1.269853188e-20
-2.146778425e-19
0.0025
4.402814091e-19
-2.007719605e-19
0.0025
5.952072691e-19
-4.101349368e-19
0.0025
2.294006928e-19
9.358380074e-19
0.0025
-3.944024314e-19
3.356261896e-19
0.0025
-1.281077795e-20
4.372153273e-19
0.0025
1.228687e-19
4.079556917e-19
0.0025
3.597375293e-19
2.415320574e-19
0.0025
-1.184878501e-19
1.271753169e-19
0.0025
-6.317756539e-19
-1.225687188e-19
0.0025
-4.544924337e-20
-2.286763946e-19
0.0025
-1.936222985e-19
-3.030715388e-20
0.0025
-2.085830449e-19
1.345527836e-19
0.0025
3.690228757e-19
-5.756335065e-20
0.0025
5.261234237e-19
1.55254418e-19
0.0025
1.03413933e-18
1.627717174e-19
0.0025
4.5775094e-19
5.122042997e-19
0.0025
-2.693314826e-19
5.798999066e-19
0.0025
4.069036031e-19
-2.11845864e-20
0.0025
-2.175411752e-19
2.146311726e-19
0.0025
-9.378821575e-20
-9.248800925e-20
0.0025
-3.258746832e-19
-1.231487672e-19
0.0025
-1.138806809e-19
-2.288079486e-19
0.0025
-2.827651016e-19
2.359870195e-19
0.0025
1.28368694e-19
-2.809828641e-19
0.0025
1.457477076e-19
1.008063084e-19
0.0025
-1.852924029e-19
1.390128783e-19
0.0025
2.783984518e-19
2.528477875e-19
0.0025
2.517747866e-19
-9.285956163e-20
0.0025
3.779229091e-19
2.744538392e-19
0.0025
3.293868742e-19
3.603561023e-19
0.0025
9.389324587e-20
-6.736193417e-19
0.0025
-9.882140724e-19
-3.193463299e-20
0.0025
-4.993883506e-19
-1.052932535e-18
0.0025
-8.967604818e-19
-9.124333412e-19
0.0025
-1.277087725e-18
-7.998910385e-19
0.0025
-1.258980021e-18
-1.768503629e-18
0.0025
-1.409981587e-18
-1.40288808e-18
0.0025
-1.231741769e-18
-1.109101757e-18
0.0025
-1.126935762e-18
-1.068684321e-18
0.0025
-1.157513547e-18
-1.738932364e-18
0.0025
-1.301639578e-18
-1.488123906e-18
0.0025
-1.565348774e-18
-1.379362128e-18
0.0025
-1.203456861e-18
-1.244386855e-18
0.0025
-8.270132309e-19
-7.048092431e-19
0.0025
-1.628939905e-18
-1.151512905e-18
0.0025
-1.400086444e-18
-1.379112701e-18
0.0025
-1.314072892e-18
-1.175872186e-18
0.0025
-1.49742092e-18
-1.434956248e-18
0.0025
-8.497940678e-19
-1.17281638e-18
0.0025
-1.106891345e-18
-9.18809894e-19
0.0025
-1.467935754e-18
-5.575799213e-19
0.0025
-1.412805816e-18
-8.827988887e-19
0.0025
-1.316143145e-18
-9.591996467e-19
0.0025
-1.226809928e-18
-9.458495041e-19
0.0025
-8.679520404e-19
-1.003844688e-18
0.0025
-1.025761376e-18
-8.765353371e-19
0.0025
-9.718700009e-19
-9.722989464e-19
0.0025
-1.799758944e-18
-4.019705039e-19
0.0025
-1.021975399e-18
-4.977726254e-19
0.0025
-9.590781071e-19
-3.829968545e-19
0.0025
-1.194616252e-18
-4.654855443e-19
0.0025
-8.941496063e-19
-8.61059383e-19
0.0025
-1.066761794e-18
-6.533981604e-19
0.0025
-8.644658323e-19
-6.626774049e-19
0.0025
-3.635631923e-19
-2.893465643e-19
0.0025
-1.726100734e-18
3.267331213e-19
0.0025
-1.191736822e-18
-3.731359113e-19
0.0025
-7.215511249e-19
-3.299026598e-19
0.0025
-9.67980948e-19
-1.892419353e-19
0.0025
-1.217399137e-18
-6.043816168e-19
0.0025
-8.402660532e-19
-7.150454117e-19
0.0025
-1.126801159e-18
-6.076794825e-19
0.0025
-1.184775655e-18
-9.536028867e-19
0.0025
-5.350208908e-19
-5.689942261e-19
0.0025
-9.599623808e-19
1.969860182e-19
0.0025
-1.044175783e-18
3.774447439e-19
0.0025
-9.114555225e-19
1.165381459e-21
0.0025
-6.812793893e-19
-2.323506241e-19
0.0025
-7.95843175e-19
-5.478650074e-21
0.0025
-9.090479701e-19
-5.705766275e-19
0.0025
-7.598736824e-19
-7.581178308e-19
0.0025
-7.933559741e-19
-5.652855835e-19
0.0025
-8.521095382e-19
-7.599880998e-19
0.0025
-8.12168431e-19
-8.06623152e-19
0.0025
-4.534495977e-19
1.816054393e-19
0.0025
-5.335786101e-19
2.247505756e-19
0.0025
-6.065664337e-19
2.91626955e-19
0.0025
-7.215136113e-19
1.688682762e-19
0.0025
-7.340288192e-19
-4.075799606e-19
0.0025
-9.592526271e-19
-1.21812868e-19
0.0025
-8.131586227e-19
-5.309337516e-19
0.0025
-3.532420237e-19
-7.126527713e-19
0.0025
-2.400412361e-19
-3.376539851e-19
0.0025
-4.866894424e-19
-4.129382008e-19
0.0025
-1.469045755e-19
-4.653534305e-19
0.0025
-1.354535944e-19
9.006098742e-19
0.0025
-2.045903532e-19
-2.193091235e-19
0.0025
-3.189185563e-19
1.9409788e-19
0.0025
-4.454635875e-19
-1.143061312e-20
0.0025
-5.416854883e-19
-2.356682413e-19
0.0025
-6.100815467e-19
-3.637013785e-20
0.0025
-7.464598706e-19
-2.25120888e-19
0.0025
-4.481939544e-19
-3.013300923e-19
0.0025
-8.892692024e-20
-4.821574935e-19
0.0025
-9.365463992e-20
-2.336858406e-19
0.0025
1.042216913e-19
-3.019224974e-19
0.0025
1.846883604e-19
-2.494261629e-19
0.0025
1.101738885e-19
5.560541161e-19
0.0025
-5.175649251e-19
4.397551105e-19
0.0025
-2.181135153e-20
2.246522004e-19
0.0025
7.880575755e-20
1.884822272e-19
0.0025
3.646144748e-20
2.453475943e-21
0.0025
-1.234405673e-19
1.598753037e-19
0.0025
-6.835981631e-19
-1.550635405e-20
0.0025
-1.053865353e-19
-6.991752864e-20
0.0025
-3.104659998e-19
-7.758764345e-20
0.0025
-7.847595533e-20
5.606418138e-20
0.0025
2.563389877e-19
-1.789178557e-19
0.0025
4.968360956e-19
2.516021484e-20
0.0025
8.157499913e-19
-5.987798254e-23
0.0025
3.672429972e-19
6.543198952e-19
0.0025
-7.898668994e-20
7.600250367e-19
0.0025
3.108065167e-19
3.114220125e-19
0.0025
-3.424840832e-19
1.56280508e-19
0.0025
-1.458517421e-19
-7.860881201e-20
0.0025
-2.397414728e-19
-8.313902269e-20
0.0025
-4.594992196e-19
-1.50590045e-19
0.0025
-2.015349725e-19
-4.399696428e-21
0.0025
-1.117877297e-19
-1.309359983e-19
0.0025
2.004065865e-21
6.340886154e-21
0.0025
-1.900542737e-19
8.460499882e-20
0.0025
3.808465305e-19
7.292860351e-20
0.0025
5.833646428e-19
-3.904032438e-20
0.0025
7.802794724e-19
2.588385146e-19
0.0025
-8.979322313e-20
1.453512918e-19
0.0025
-7.323322967e-20
6.477987098e-19
0.0025
2.134114827e-19
1.477328156e-19
0.0025
7.410925099e-20
4.706957346e-20
0.0025
-2.128578565e-19
-1.2561435e-19
0.0025
-2.296342595e-19
-1.07605733e-19
0.0025
8.488731869e-20
-2.051542871e-19
0.0025
-2.155563108e-19
-9.7763417e-20
0.0025
-3.32503456e-19
7.020039516e-20
0.0025
2.465294558e-19
-6.791364197e-20
0.0025
-9.735536863e-20
3.241460625e-19
0.0025
7.198391039e-20
-1.240774593e-20
0.0025
1.209738095e-19
1.605599393e-19
0.0025
1.125533281e-19
-1.469533199e-19
0.0025
1.202707203e-19
2.10611722e-19
0.0025
6.82114034e-19
4.266881168e-20
0.0025
-2.086039874e-20
-7.013444254e-19
0.0025
-4.002879208e-19
2.412119826e-20
0.0025
-7.386638218e-20
-6.050982588e-19
0.0025
-7.919878965e-19
-8.117965089e-19
0.0025
-1.075105321e-18
-4.861814705e-19
0.0025
-1.127979321e-18
-1.479403666e-18
0.0025
-1.04776411e-18
-9.602734183e-19
0.0025
-9.0174485e-19
-8.580368907e-19
0.0025
-1.339103969e-18
-9.144894416e-19
0.0025
-1.08056861e-18
-1.645743474e-18
0.0025
-1.187597878e-18
-1.360605462e-18
0.0025
-1.019054287e-18
-9.669861399e-19
0.0025
-1.041266633e-18
-9.261988475e-19
0.0025
-9.24650241e-19
-6.824004751e-19
0.0025
-1.103021748e-18
-1.271583039e-18
0.0025
-8.982227997e-19
-1.363890236e-18
0.0025
-1.117678177e-18
-1.08254839e-18
0.0025
-1.346235218e-18
-1.12427205e-18
0.0025
-8.766142679e-19
-1.083768117e-18
0.0025
-1.084131849e-18
-7.768249112e-19
0.0025
-1.463778748e-18
-8.798252853e-19
0.0025
-1.343973279e-18
-1.088603095e-18
0.0025
-1.112647998e-18
-1.14722386e-18
0.0025
-1.180436976e-18
-9.775447292e-19
0.0025
-9.909057876e-19
-1.249942196e-18
0.0025
-1.150772498e-18
-1.169379205e-18
0.0025
-1.646011292e-18
-1.493172279e-18
0.0025
-1.380668091e-18
-5.001213914e-19
0.0025
-1.15170612e-18
-6.765631453e-19
0.0025
-1.107127108e-18
-6.096388136e-19
0.0025
-1.28140127e-18
-8.047143359e-19
0.0025
-8.206951524e-19
-1.067916266e-18
0.0025
-1.186491793e-18
-8.248805176e-19
0.0025
-1.040091074e-18
-8.273524655e-19
0.0025
-3.164909378e-19
-5.315591756e-19
0.0025
-2.119338873e-18
6.367495119e-20
0.0025
-9.881057562e-19
-4.613815928e-19
0.0025
-8.129485773e-19
-5.051258055e-19
0.0025
-1.279588384e-18
-3.129430883e-19
0.0025
-1.202185972e-18
-8.180435763e-19
0.0025
-9.114033564e-19
-8.511553653e-19
0.0025