/*--------------------------------*- C++ -*----------------------------------*\
| =========                 |                                                 |
| \\      /  F ield         | OpenFOAM: The Open Source CFD Toolbox           |
|  \\    /   O peration     | Version:  2212                                  |
|   \\  /    A nd           | Website:  www.openfoam.com                      |
|    \\/     M anipulation  |                                                 |
\*---------------------------------------------------------------------------*/
FoamFile
{
    version     2.0;
    format      ascii;
    arch        "LSB;label=32;scalar=64";
    class       volVectorField;
    location    "1.4";
    object      U;
}
// * * * * * * * * * * * * * * * * * * * * * * * * * * * * * * * * * * * * * //

dimensions      [0 1 -1 0 0 0 0];

internalField   nonuniform List<vector> 
42875
(
(1 -4.252980081e-17 3.80535697e-16)
(1 -5.687295088e-17 5.411204388e-16)
(1 -1.018995175e-16 2.478192956e-16)
(1 -1.297398975e-16 1.88364591e-16)
(1 -3.29742848e-16 3.693172962e-16)
(1 -5.108163964e-17 3.419926758e-16)
(1 -2.820570217e-16 4.925382262e-16)
(1 -1.437684821e-16 2.199353433e-16)
(1 -2.244485924e-16 2.743994702e-16)
(1 3.000741671e-17 -8.324216228e-17)
(1 -3.340741387e-16 1.417098864e-16)
(1 -1.345179318e-16 4.278743295e-16)
(1 -2.953224448e-16 4.553769452e-16)
(1 -1.996083177e-16 2.284980737e-16)
(1 -3.370893625e-16 2.524309042e-16)
(1 -3.00811109e-16 4.483191893e-17)
(1 -1.729962362e-16 3.089625956e-16)
(1 -8.968824893e-17 2.052645924e-16)
(1 -1.11208668e-16 2.614458537e-18)
(1 -3.448830559e-17 -8.158321652e-17)
(1 -5.594971314e-16 -4.3749272e-16)
(1 -2.16722291e-16 2.462482141e-16)
(1 -2.472228381e-16 1.503257628e-16)
(1 -1.190608448e-16 1.443794938e-16)
(1 -3.597050755e-16 3.379017439e-16)
(1 -4.670060348e-16 7.725819392e-17)
(1 -2.086249816e-16 3.519114374e-16)
(1 -2.038451476e-16 1.805287096e-16)
(1 -3.556806496e-16 3.342412682e-17)
(1 -3.061343937e-16 -1.283863874e-16)
(1 -7.740019564e-17 3.124345214e-16)
(1 -8.604301683e-17 3.390463695e-16)
(1 -1.184930515e-16 3.14320842e-17)
(1 -8.479418531e-17 2.491029379e-17)
(1 1.75320965e-16 -2.16121197e-16)
(1 -7.502242497e-16 -5.941874559e-16)
(1 -6.014527922e-16 -1.400826779e-16)
(1 -2.701958333e-16 -4.532617645e-16)
(1 -2.946818203e-16 -7.494704487e-17)
(1 -3.739730861e-16 1.795576921e-16)
(1 -3.745780385e-16 -1.184477386e-17)
(1 -3.04589067e-16 2.793438342e-16)
(1 -2.598832729e-16 1.442282435e-16)
(1 -4.422687349e-16 7.738934675e-17)
(1 -3.350356944e-16 -1.277134419e-16)
(1 -1.993099544e-16 2.180138611e-16)
(1 -2.376141557e-16 3.474352698e-16)
(1 -1.144397434e-16 5.986577621e-17)
(1 -3.48522112e-16 2.030430831e-16)
(1 4.577749355e-17 -3.602252633e-16)
(1 2.646607009e-16 2.723504654e-16)
(1 -1.138598371e-16 3.768094507e-16)
(1 -4.055103417e-18 1.015914153e-16)
(1 1.846636384e-17 1.60605714e-16)
(1 9.919427674e-17 1.646826201e-17)
(1 1.445099284e-16 1.0155278e-16)
(1 -9.465470005e-16 -8.46432148e-16)
(1 -8.791110201e-16 -2.930583374e-16)
(1 -4.412895933e-16 -6.930079202e-16)
(1 -5.742707842e-16 -2.175376561e-16)
(1 -4.022491919e-16 -2.00842674e-16)
(1 -2.701652087e-16 -1.416544507e-16)
(1 -4.796118736e-16 2.206303832e-16)
(1 -3.106038301e-16 -3.650326983e-17)
(1 -3.810909345e-16 -5.101489388e-17)
(1 -3.111963795e-16 -3.379230589e-17)
(1 -3.294307708e-16 2.272714528e-16)
(1 -2.284323899e-16 2.962612396e-16)
(1 -1.406379306e-16 1.211256107e-16)
(1 -3.411369083e-16 9.224591239e-17)
(1 -1.936328734e-16 -2.86776626e-16)
(1 2.867574956e-17 3.30666369e-16)
(1 -1.916001156e-16 2.588033267e-16)
(1 -1.500077273e-16 1.38793994e-16)
(1 -1.007024216e-16 3.026147078e-16)
(1 9.222789905e-17 -7.966112509e-17)
(1 2.779688211e-17 -5.580060021e-17)
(1 8.342627603e-17 1.400572453e-16)
(1 1.096090295e-16 2.314467692e-16)
(1 -1.705886275e-16 2.769733244e-16)
(1 1.615180625e-16 1.251438399e-16)
(1 -2.296882541e-17 5.644678976e-17)
(1 1.137513076e-16 7.24012733e-18)
(1 5.716174677e-17 2.891317918e-17)
(1 -1.263347252e-15 -1.41399504e-15)
(1 -1.126208763e-15 -4.601704867e-16)
(1 -5.494665854e-16 -1.000812341e-15)
(1 -6.96345265e-16 -1.663815425e-16)
(1 -5.475003023e-16 -3.173526726e-16)
(1 -3.100108914e-16 -4.697915103e-16)
(1 -6.207188697e-16 4.988285485e-17)
(1 -4.22112214e-16 -2.544332253e-16)
(1 -4.070637892e-16 -2.768657503e-16)
(1 -3.149036637e-16 6.789429688e-19)
(1 -4.376748758e-16 2.156832103e-16)
(1 -2.344950646e-16 2.043434357e-16)
(1 -2.025946632e-16 4.133131873e-17)
(1 -3.29348634e-16 -1.016433875e-17)
(1 -3.357310553e-16 -1.146284345e-16)
(1 -2.276622154e-16 3.386205086e-16)
(1 -2.782034056e-16 2.007133247e-16)
(1 -2.161602228e-16 2.243537825e-16)
(1 -1.187105325e-16 2.007209876e-16)
(1 -8.826836792e-17 -2.375509888e-16)
(1 -2.645594512e-16 -3.146969428e-16)
(1 5.049253289e-17 2.793358489e-16)
(1 6.125855366e-17 2.778388306e-16)
(1 -2.6755061e-16 2.444816208e-16)
(1 -4.961672307e-17 2.412143443e-16)
(1 -6.220638096e-17 4.41231137e-17)
(1 7.85365303e-17 -3.084852891e-17)
(1 6.554492174e-17 -8.670508991e-17)
(1 -1.746593268e-16 1.846040494e-16)
(1 1.787341578e-17 6.971649071e-17)
(1 3.104516426e-17 2.680353036e-16)
(1 3.763529679e-17 6.847880705e-17)
(1 -5.444802191e-17 1.09899229e-16)
(1 1.311339912e-16 9.38146684e-17)
(1 8.714631572e-17 1.114909802e-17)
(1 1.370499276e-16 -1.627460711e-16)
(1 -1.379205247e-15 -1.445671785e-15)
(1 -1.21996767e-15 -9.225252895e-16)
(1 -7.094149565e-16 -1.526588022e-15)
(1 -9.135638e-16 -3.679792631e-16)
(1 -7.210537695e-16 -4.706558855e-16)
(1 -3.042157551e-16 -6.990446685e-16)
(1 -5.475577534e-16 1.140643893e-17)
(1 -4.439973603e-16 -1.481420075e-16)
(1 -3.940140958e-16 -2.727623423e-16)
(1 -2.362727428e-16 -4.289060534e-17)
(1 -3.397116431e-16 9.2359983e-17)
(1 -3.732300944e-16 -1.341153183e-18)
(1 -3.858613821e-16 -1.874132687e-16)
(1 -3.890450606e-16 -1.333968822e-16)
(1 -3.727328823e-16 -6.749374664e-17)
(1 -3.480825153e-16 2.951427685e-16)
(1 -3.85539255e-16 1.172405714e-16)
(1 -3.417517094e-16 2.319357711e-16)
(1 7.005965853e-18 3.825883665e-17)
(1 -3.305646512e-16 -1.712371387e-16)
(1 -3.580321165e-16 -2.993827765e-16)
(1 -5.4737941e-17 3.092193839e-16)
(1 -1.491894317e-16 3.322190423e-16)
(1 -3.022647836e-16 1.151100317e-16)
(1 -2.225495451e-16 1.703813749e-16)
(1 -9.792696449e-17 -6.250806169e-17)
(1 -1.021355357e-16 -1.543839569e-16)
(1 -5.504179757e-17 -3.013121174e-16)
(1 -1.886704779e-16 2.597667627e-16)
(1 -1.78528757e-17 2.038405648e-16)
(1 -4.899823056e-17 2.706694849e-16)
(1 -5.652845867e-17 2.247814515e-16)
(1 -2.418373058e-16 7.734697773e-17)
(1 7.953226745e-17 -5.075459931e-17)
(1 1.039562221e-16 -5.628553294e-17)
(1 5.887236756e-17 -2.345729131e-16)
(1 5.347204123e-18 1.876495473e-16)
(1 -1.090994307e-16 1.27747167e-16)
(1 -4.744179619e-18 7.643256713e-17)
(1 -8.435413837e-17 2.088907103e-16)
(1 -7.571308739e-17 -1.798485869e-16)
(1 -7.65382925e-17 9.504242011e-17)
(1 5.940371828e-17 5.300174701e-17)
(1 1.555426858e-16 1.214037023e-16)
(1 3.698339722e-16 -8.125636965e-17)
(1 -1.421604728e-15 -1.328817445e-15)
(1 -1.206070697e-15 -1.059611346e-15)
(1 -1.004855884e-15 -1.631029372e-15)
(1 -1.136881165e-15 -7.470197914e-16)
(1 -7.416688831e-16 -9.082292554e-16)
(1 -4.078855703e-16 -1.105267876e-15)
(1 -6.409020729e-16 -1.149280311e-16)
(1 -6.343064472e-16 -3.082772357e-16)
(1 -4.799292761e-16 -3.4619319e-16)
(1 -1.591273519e-16 -2.950380223e-16)
(1 -2.709771204e-16 7.651831189e-17)
(1 -3.668178003e-16 -7.331038864e-17)
(1 -4.919477758e-16 -1.437148928e-16)
(1 -2.766817705e-16 -2.516119987e-16)
(1 -4.736777631e-16 -1.34090918e-16)
(1 -4.675044944e-16 5.218022057e-17)
(1 -3.783305925e-16 -5.825617682e-17)
(1 -4.402594892e-16 8.593992725e-17)
(1 -1.209235668e-16 -1.171382175e-16)
(1 -4.856155942e-16 -9.504081814e-17)
(1 -3.210771954e-16 -1.777407455e-16)
(1 -3.058240613e-16 3.772021296e-16)
(1 -2.141775548e-16 3.290124798e-16)
(1 -3.143925106e-16 8.496492439e-17)
(1 -1.862785453e-16 1.486485679e-16)
(1 -5.633652255e-17 3.436037958e-17)
(1 -1.720555457e-16 -2.162079505e-16)
(1 -2.380764292e-16 -2.706264655e-16)
(1 -1.468985412e-16 3.599658957e-16)
(1 -3.803474382e-17 2.730103523e-16)
(1 -1.764410158e-16 2.268189834e-16)
(1 -2.696624772e-16 1.637788041e-16)
(1 -2.559089797e-16 -8.703869515e-17)
(1 3.297806234e-17 -1.500378286e-16)
(1 6.608129802e-17 -9.049652109e-17)
(1 -1.927349807e-17 -1.742998801e-16)
(1 1.033517385e-16 2.846140157e-16)
(1 -1.874564423e-16 1.825721945e-16)
(1 -1.973603802e-17 1.23153487e-16)
(1 -6.865429704e-17 3.575164852e-16)
(1 -1.487451952e-16 2.680687374e-18)
(1 -7.905052938e-17 2.670391489e-17)
(1 1.680811979e-17 -1.247032137e-16)
(1 9.143371406e-17 -2.863889796e-17)
(1 2.77073725e-16 -1.823885968e-16)
(1 -1.42801123e-16 1.239376502e-16)
(1 -3.198048953e-17 1.136760785e-16)
(1 -1.906351176e-16 -3.882926111e-17)
(1 -2.909912048e-16 7.291425935e-17)
(1 2.686006252e-17 -5.00233168e-17)
(1 -1.360331061e-16 1.329763186e-16)
(1 -4.765272845e-17 -2.581691736e-17)
(1 9.869542557e-17 -1.746086882e-16)
(1 5.667385744e-17 1.989885827e-17)
(1 2.575769916e-16 -6.608793759e-17)
(1 -1.125740742e-15 -9.954690954e-16)
(1 -1.166546435e-15 -9.790478668e-16)
(1 -1.081595052e-15 -1.583561776e-15)
(1 -1.21281435e-15 -9.6462449e-16)
(1 -8.337245079e-16 -1.107734945e-15)
(1 -6.660656766e-16 -1.341562227e-15)
(1 -1.056786026e-15 -4.228820218e-16)
(1 -8.02823651e-16 -8.819243113e-16)
(1 -5.485937577e-16 -6.704943251e-16)
(1 -1.105897131e-16 -7.862018071e-16)
(1 -4.121514972e-16 -1.261471786e-16)
(1 -5.82564354e-16 -3.324410775e-16)
(1 -7.301674374e-16 -2.391346629e-16)
(1 -3.056645333e-16 -3.419571688e-16)
(1 -2.54889492e-16 -2.318988809e-16)
(1 -3.737065143e-16 -8.807458909e-17)
(1 -4.090469864e-16 -1.429662846e-16)
(1 -5.460594317e-16 -1.067278071e-16)
(1 -2.900745327e-16 -2.114967695e-16)
(1 -5.218655266e-16 -1.415865092e-16)
(1 -1.842418601e-16 -1.718269924e-16)
(1 -3.774697176e-16 2.501425216e-16)
(1 -3.011509666e-16 -3.724289502e-18)
(1 -3.570718864e-16 4.930482809e-17)
(1 -1.452251213e-16 -2.796808348e-17)
(1 -2.64177052e-16 6.638315987e-17)
(1 -2.484197129e-16 -1.826630147e-16)
(1 -3.770152084e-16 -1.308782776e-16)
(1 -2.301927748e-16 4.923943388e-16)
(1 -1.000283412e-16 3.656483639e-16)
(1 -1.58237275e-16 2.111600318e-16)
(1 -4.094560034e-16 1.607691659e-16)
(1 -2.04538159e-16 -1.315556523e-16)
(1 2.829534827e-17 -1.240245798e-16)
(1 -1.513550093e-16 -1.098345323e-16)
(1 -1.75216496e-16 -2.437652669e-16)
(1 1.089834016e-16 3.621527356e-16)
(1 -1.177853983e-16 2.224166853e-16)
(1 -1.712766848e-16 1.516208276e-16)
(1 -1.16483089e-16 2.128846858e-16)
(1 -2.541396086e-16 4.950314036e-17)
(1 -9.97574841e-17 -4.453749677e-17)
(1 3.457542402e-17 -1.200587477e-16)
(1 3.62230016e-17 -1.044866058e-16)
(1 6.041649426e-17 -1.129092874e-16)
(1 5.948618465e-17 2.240627899e-16)
(1 4.914189057e-17 2.002713609e-16)
(1 -1.744582253e-16 2.141853147e-17)
(1 -2.46092663e-16 1.530501526e-16)
(1 -1.289935932e-16 2.790082442e-17)
(1 -1.302634254e-16 5.279072497e-17)
(1 -1.127274442e-16 -6.14112404e-17)
(1 7.681525707e-17 -2.733492514e-16)
(1 5.54203389e-17 3.98934115e-17)
(1 3.210375628e-16 -4.498069463e-17)
(1 6.1656144e-17 3.61174125e-16)
(1 -9.638376661e-18 6.689914874e-17)
(1 -4.458265466e-17 6.871592006e-17)
(1 -7.322609881e-17 -4.170717458e-17)
(1 -2.576654792e-16 2.642514338e-17)
(1 1.321428713e-16 1.26434432e-16)
(1 -4.174265421e-17 6.352964206e-17)
(1 -6.285701909e-17 -9.623315435e-17)
(1 -1.478745437e-16 7.00517306e-17)
(1 2.970780307e-16 -2.704843484e-16)
(1 1.336547058e-16 -1.903409102e-17)
(1 -4.418146492e-16 -3.775096695e-16)
(1 -9.168541123e-16 -8.5175362e-16)
(1 -9.888594768e-16 -1.276205967e-15)
(1 -1.097747131e-15 -9.904510625e-16)
(1 -9.224956983e-16 -1.017023158e-15)
(1 -6.654814963e-16 -1.166706026e-15)
(1 -1.201679746e-15 -5.271375328e-16)
(1 -8.004780246e-16 -1.095398441e-15)
(1 -6.318721452e-16 -7.548103928e-16)
(1 -2.855699435e-16 -1.119379956e-15)
(1 -6.451141336e-16 -4.848975663e-16)
(1 -8.004332439e-16 -5.004590776e-16)
(1 -7.495051462e-16 -5.899425514e-16)
(1 -1.728876824e-16 -5.698998818e-16)
(1 -1.367920292e-16 -1.941652653e-16)
(1 -4.602013821e-16 -1.605231585e-16)
(1 -4.56097882e-16 -2.199262591e-16)
(1 -6.038496702e-16 -1.758824639e-16)
(1 -4.770018487e-16 -2.686925822e-16)
(1 -4.216544016e-16 -2.855636173e-16)
(1 -1.406760722e-16 -3.080891472e-16)
(1 -1.42221404e-16 -1.936669916e-18)
(1 -4.439388636e-16 -1.861677369e-16)
(1 -3.386155716e-16 -8.926810225e-17)
(1 -3.512331894e-16 -1.572904729e-16)
(1 -3.740100942e-16 -1.904863396e-16)
(1 -2.964061044e-16 -6.266069497e-17)
(1 -3.49425469e-16 -5.91422265e-17)
(1 -3.353075581e-16 1.887282505e-16)
(1 -2.989688992e-16 2.53049648e-16)
(1 -1.557356333e-16 6.085422833e-17)
(1 -4.272402579e-16 9.413778828e-17)
(1 -2.372130755e-16 -6.984215805e-17)
(1 -7.669863503e-17 -1.186500995e-16)
(1 -4.405640236e-16 -9.549113253e-17)
(1 -2.388212807e-16 -3.269914362e-16)
(1 -1.091643935e-17 4.359707257e-16)
(1 -1.620628211e-16 3.266223032e-16)
(1 -3.24033803e-16 1.247605206e-16)
(1 -1.898439967e-16 1.101027131e-16)
(1 -3.679943051e-16 5.208933022e-17)
(1 -1.847208233e-16 -8.221761499e-17)
(1 1.039251424e-16 -2.436511857e-16)
(1 -1.681385525e-16 -1.574741588e-16)
(1 -1.042932411e-16 -1.457850472e-16)
(1 3.053709566e-16 2.290102547e-16)
(1 -1.684755099e-17 2.942560409e-16)
(1 -1.190409286e-16 9.386252025e-17)
(1 -1.660282753e-16 1.805033742e-16)
(1 -1.494442531e-16 5.063863888e-17)
(1 -1.324039389e-16 2.841039547e-17)
(1 -8.371378478e-17 -4.262887914e-17)
(1 6.853400434e-17 -1.942733338e-16)
(1 5.492148199e-17 5.545975294e-17)
(1 1.522098299e-16 -1.436721762e-16)
(1 -1.628321688e-16 3.424318071e-16)
(1 1.467068781e-16 8.76372883e-17)
(1 5.361348122e-18 1.120339676e-16)
(1 -2.184176835e-16 1.995694832e-16)
(1 -2.109250362e-16 -3.29421858e-17)
(1 -1.103820407e-16 3.595085205e-17)
(1 -1.563152929e-16 -6.137316639e-17)
(1 -2.067868683e-17 -5.482517058e-17)
(1 -9.298907453e-19 3.571369969e-17)
(1 3.25105563e-16 -2.078919378e-16)
(1 9.699404748e-17 -9.431412554e-17)
(1 -6.23614208e-17 1.937481845e-16)
(1 1.245814364e-16 1.839190216e-16)
(1 -8.055101561e-17 8.274935119e-17)
(1 7.73149419e-17 5.608734239e-17)
(1 -1.919505094e-16 3.363580604e-16)
(1 9.204832936e-17 5.193087771e-17)
(1 -2.494008234e-17 2.699063696e-17)
(1 -8.222707251e-17 -1.858608204e-16)
(1 -4.463905027e-17 -1.199835765e-16)
(1 -3.687217673e-17 -7.616240958e-17)
(1 4.885971176e-17 3.79100179e-17)
(1 2.985236109e-16 -6.616581789e-17)
(1 -2.409986878e-17 2.165557975e-16)
(1 -3.177306528e-16 -5.845243546e-16)
(1 -6.45038811e-16 -3.927236877e-16)
(1 -7.280440161e-16 -8.556189583e-16)
(1 -8.445790366e-16 -8.5755878e-16)
(1 -5.457165167e-16 -9.339124766e-16)
(1 -1.07332358e-15 -5.307486414e-16)
(1 -7.278231733e-16 -1.054501842e-15)
(1 -5.957869792e-16 -6.602355743e-16)
(1 -4.190338302e-16 -1.045841599e-15)
(1 -6.423973866e-16 -5.777202082e-16)
(1 -8.960568602e-16 -5.54232141e-16)
(1 -6.845206154e-16 -7.235084535e-16)
(1 -1.929746297e-16 -7.278491613e-16)
(1 -2.025311359e-16 -2.581255696e-16)
(1 -8.657532496e-16 -3.395290104e-16)
(1 -5.602195256e-16 -4.949818263e-16)
(1 -6.53429331e-16 -3.375592234e-16)
(1 -4.37061559e-16 -4.958354799e-16)
(1 -2.309888035e-16 -3.056266497e-16)
(1 -2.097388954e-16 -3.346417896e-16)
(1 -1.793034718e-16 -6.832545667e-17)
(1 -4.202071666e-16 -1.895830683e-16)
(1 -3.157553459e-16 -1.07515715e-16)
(1 -4.397341073e-16 -4.749963738e-17)
(1 -4.438121675e-16 -2.448388039e-16)
(1 -3.072454928e-16 -2.460672807e-16)
(1 -1.321890998e-16 -6.941176545e-17)
(1 -6.587914516e-16 -3.356958616e-16)
(1 -3.769706813e-16 -6.3984751e-17)
(1 -2.777139203e-16 -1.465697682e-16)
(1 -4.553700793e-16 -2.259860482e-18)
(1 -3.135169384e-16 -9.756471748e-17)
(1 -2.490425787e-16 -2.002363953e-16)
(1 -5.697506076e-16 -8.904713015e-17)
(1 -2.157589028e-16 -4.65242906e-16)
(1 -2.520118399e-16 3.401287934e-16)
(1 -3.122488575e-16 8.950236602e-17)
(1 -3.287754373e-16 6.446567362e-17)
(1 -2.740689882e-16 1.480498972e-16)
(1 -1.746086096e-16 6.657689977e-17)
(1 -1.687837352e-16 -2.674321084e-17)
(1 -1.356520026e-16 -2.99753394e-16)
(1 -3.964339373e-16 -1.956211556e-16)
(1 -2.260615062e-16 -2.185625549e-16)
(1 2.17339493e-16 2.778178868e-16)
(1 -2.308588555e-16 3.739230378e-16)
(1 -2.025501257e-16 7.539679122e-17)
(1 -2.486653403e-16 1.601881306e-16)
(1 -1.401402628e-16 -4.200221584e-17)
(1 -2.810464565e-16 3.966020986e-17)
(1 -4.660801876e-17 -1.325967364e-16)
(1 5.912751559e-18 -2.121513055e-16)
(1 -1.029093246e-16 -7.840053451e-17)
(1 -9.132466758e-17 -3.166032925e-16)
(1 -1.6345311e-16 1.244938081e-16)
(1 1.253685964e-16 1.589764912e-16)
(1 4.326541685e-17 6.403143946e-17)
(1 -1.857408491e-16 2.20963329e-16)
(1 -1.515293481e-16 -7.604342367e-17)
(1 -2.407174995e-16 3.991093219e-17)
(1 -1.586009789e-16 -7.872610909e-17)
(1 -6.996200605e-17 -1.334499711e-16)
(1 -6.382826776e-18 -7.40960628e-17)
(1 7.871445783e-17 -1.618883633e-16)
(1 5.213037398e-17 -2.110610231e-16)
(1 -2.203631478e-16 2.385804381e-16)
(1 -1.409084708e-16 1.535285172e-16)
(1 1.686542012e-18 5.43159374e-17)
(1 6.38082088e-17 1.435863515e-16)
(1 -1.872071589e-16 2.387216376e-16)
(1 -1.76076788e-17 2.071111363e-16)
(1 2.755515922e-17 -2.116057943e-17)
(1 -8.221370152e-17 -1.077357803e-16)
(1 7.191504221e-17 -5.19637634e-17)
(1 1.645590533e-17 -8.138728376e-17)
(1 3.163151392e-17 -8.219528766e-17)
(1 3.318776764e-16 -2.484285225e-16)
(1 -1.283085148e-16 4.264473072e-16)
(1 1.937821534e-17 -2.898772109e-17)
(1 -4.247190035e-17 1.511399835e-16)
(1 9.848608571e-17 3.11286051e-16)
(1 2.767793441e-16 1.878045731e-16)
(1 3.531331935e-17 1.861591558e-16)
(1 -1.288119222e-16 -3.937878345e-17)
(1 3.36665848e-17 -2.163470787e-16)
(1 -1.751229045e-16 -1.683440207e-17)
(1 -1.410631177e-16 -3.041789177e-17)
(1 8.087316077e-17 -1.648412702e-16)
(1 1.078704874e-16 1.362379484e-16)
(1 3.808918646e-16 3.293055926e-17)
(1 6.087012336e-17 2.814312935e-16)
(1 8.817442165e-17 -2.302029016e-16)
(1 -4.887704921e-16 8.634283868e-17)
(1 -3.106807128e-16 -5.952224683e-16)
(1 -4.94388942e-16 -6.251421353e-16)
(1 -6.34470062e-16 -5.388667485e-16)
(1 -7.848887801e-16 -6.823972248e-16)
(1 -6.206862172e-16 -8.907340399e-16)
(1 -5.125986671e-16 -5.589131606e-16)
(1 -4.116095424e-16 -7.196762041e-16)
(1 -4.508423738e-16 -5.908090221e-16)
(1 -8.006142676e-16 -5.546233484e-16)
(1 -6.454670517e-16 -6.191828868e-16)
(1 -3.599253708e-16 -6.89164168e-16)
(1 -2.44285113e-16 -4.692617277e-16)
(1 -9.936434108e-16 -4.278828376e-16)
(1 -5.63910143e-16 -5.382345642e-16)
(1 -6.527578618e-16 -4.371627256e-16)
(1 -4.830205496e-16 -6.712346664e-16)
(1 -2.06870379e-16 -3.736541825e-16)
(1 -3.777475192e-16 -1.968337847e-16)
(1 -3.842041014e-16 -1.230538105e-16)
(1 -5.615078915e-16 -2.802167465e-16)
(1 -4.277366073e-16 -2.382655569e-16)
(1 -4.677397409e-16 -2.129967155e-16)
(1 -4.005452991e-16 -2.89044801e-16)
(1 -2.440117514e-16 -3.50372711e-16)
(1 -1.107591558e-16 -2.314094601e-16)
(1 -6.723650642e-16 -2.493358215e-16)
(1 -2.616138525e-16 -1.85987192e-16)
(1 -4.414802442e-16 -1.379056478e-16)
(1 -4.082330697e-16 -1.835800199e-17)
(1 -3.495437673e-16 -1.43270325e-16)
(1 -3.281698912e-16 -2.114840064e-16)
(1 -3.071257201e-16 -1.001823203e-16)
(1 -1.462863847e-16 -2.576377137e-16)
(1 -6.864404995e-16 2.787989203e-16)
(1 -4.185091777e-16 -2.767486966e-16)
(1 -2.240043707e-16 -6.490158041e-17)
(1 -4.211370131e-16 -3.928337467e-17)
(1 -1.787562819e-16 1.360892778e-17)
(1 -1.570769512e-16 -2.79412692e-17)
(1 -3.671476074e-16 -2.400313831e-16)
(1 -5.015113522e-16 -2.795491481e-16)
(1 -1.400665635e-16 -2.732478298e-16)
(1 -1.644824138e-17 1.291476842e-16)
(1 -2.65260128e-16 2.697331054e-16)
(1 -3.336908068e-16 8.489731481e-17)
(1 -2.619855285e-16 8.57346383e-17)
(1 -2.266520694e-16 1.579888714e-17)
(1 -3.49364982e-16 -2.871222713e-17)
(1 -1.176943079e-16 -1.935098669e-16)
(1 -1.618576861e-16 -2.74809181e-16)
(1 -3.935561609e-16 -2.936612236e-16)
(1 -3.195539855e-16 -3.873302569e-16)
(1 -1.217272801e-16 1.035762497e-16)
(1 -5.033988902e-17 2.429917904e-16)
(1 -1.277086387e-16 8.065248879e-17)
(1 -2.355425932e-16 1.794111738e-16)
(1 -2.521164469e-16 -1.416709306e-16)
(1 -3.66145488e-16 5.282792356e-17)
(1 -2.39717569e-16 -1.287518143e-16)
(1 -5.519841016e-17 -3.324805704e-16)
(1 -8.775533108e-17 -1.389522403e-16)
(1 -1.609217395e-16 -1.569573291e-16)
(1 3.49494579e-17 -2.657038057e-16)
(1 -3.415722345e-16 3.273800863e-16)
(1 -5.208525546e-17 -8.757788922e-17)
(1 -4.90909063e-17 1.210687435e-16)
(1 1.798666376e-17 8.940037835e-17)
(1 -2.153353387e-16 -5.52612228e-17)
(1 -2.47983633e-16 1.202571352e-16)
(1 -6.486005603e-17 -1.088886415e-16)
(1 -1.977494113e-16 -1.104453973e-16)
(1 4.584783929e-18 -9.993220399e-17)
(1 -6.937391247e-17 -7.547415691e-17)
(1 1.620926532e-16 -1.631409093e-16)
(1 2.177628705e-16 -2.260268711e-16)
(1 1.820584692e-17 2.882859127e-16)
(1 -2.674320744e-16 2.173717434e-16)
(1 -6.398534506e-17 1.134383894e-16)
(1 1.27917486e-16 3.003184146e-16)
(1 1.31408915e-16 1.364225704e-16)
(1 -1.832681356e-17 9.242819238e-17)
(1 -1.939276579e-16 1.357128137e-17)
(1 -2.361505333e-17 -1.317967039e-16)
(1 -1.960042589e-16 2.698169355e-17)
(1 -3.0051661e-17 7.32446516e-18)
(1 2.324388517e-16 -1.420816956e-16)
(1 2.627667542e-16 6.839336161e-17)
(1 4.407347665e-16 -9.393138378e-18)
(1 4.09973122e-16 1.517408178e-16)
(1 -1.89290222e-16 5.162820483e-16)
(1 2.512084695e-16 -1.024718406e-16)
(1 -6.098685184e-17 3.446856617e-16)
(1 1.595165554e-16 3.011368118e-17)
(1 -2.197541851e-16 9.614509033e-17)
(1 -1.062150318e-16 -1.361568378e-16)
(1 -7.300080112e-17 3.794803275e-17)
(1 1.809870025e-16 -1.294243558e-16)
(1 -8.411672827e-17 7.269032317e-18)
(1 4.063988965e-17 9.782226311e-17)
(1 3.604153913e-17 9.743787359e-17)
(1 2.215549224e-16 -1.330419322e-17)
(1 2.610984061e-16 1.158070749e-16)
(1 2.111275011e-16 1.344260848e-16)
(1 7.811568158e-17 -1.538986048e-16)
(1 -4.163758088e-16 1.953638909e-16)
(1 2.548908154e-18 -3.717640433e-16)
(1 -4.078598073e-16 -3.882209402e-16)
(1 -5.777712369e-16 -1.968710179e-16)
(1 -5.121277628e-16 -7.390505097e-16)
(1 -4.513851228e-16 -6.918911723e-16)
(1 -5.736249749e-16 -4.226691759e-16)
(1 -4.777217212e-16 -5.892406842e-16)
(1 -4.184354062e-16 -6.937782299e-16)
(1 -6.828669514e-16 -7.093861356e-16)
(1 -6.385818387e-16 -5.800877743e-16)
(1 -3.936436633e-16 -6.171259622e-16)
(1 -3.385444811e-16 -4.034341451e-16)
(1 -7.8392078e-16 -4.791257856e-16)
(1 -4.75191878e-16 -6.184164444e-16)
(1 -6.963083604e-16 -5.644032906e-16)
(1 -6.201825975e-16 -7.018216889e-16)
(1 -2.78386287e-16 -4.811556742e-16)
(1 -4.494637172e-16 -1.77609322e-16)
(1 -6.10237207e-16 -2.008330028e-16)
(1 -6.861657732e-16 -4.078469554e-16)
(1 -4.715141815e-16 -4.026665471e-16)
(1 -5.70668405e-16 -3.830974714e-16)
(1 -3.382207419e-16 -4.13859218e-16)
(1 -3.315845633e-16 -4.255521407e-16)
(1 -4.195164345e-16 -5.145164684e-16)
(1 -5.730649902e-16 -2.625935812e-16)
(1 -3.514680149e-16 -1.864274294e-16)
(1 -5.769334453e-16 -1.645006065e-16)
(1 -4.00887593e-16 -1.765585238e-16)
(1 -3.867211567e-16 -3.133040316e-16)
(1 -4.293083008e-16 -3.348753882e-16)
(1 -1.992356173e-16 -1.657905998e-16)
(1 -1.029695448e-16 -8.188038176e-17)
(1 -8.654818774e-16 1.023886091e-16)
(1 -5.198702677e-16 -1.232415391e-16)
(1 -1.12464046e-16 -1.450740685e-16)
(1 -4.403632161e-16 -1.124166309e-16)
(1 -3.908270477e-16 -1.527880102e-16)
(1 -3.394395555e-16 -3.072285538e-16)
(1 -4.786412453e-16 -2.09956468e-16)
(1 -4.342564861e-16 -3.748696822e-16)
(1 -2.140589075e-16 -1.223225844e-16)
(1 -3.356329369e-16 2.759849849e-17)
(1 -3.766350262e-16 2.374376557e-16)
(1 -3.517664941e-16 8.044607284e-19)
(1 -2.242690158e-16 -1.582133942e-16)
(1 -4.164283561e-16 8.185167352e-17)
(1 -2.865272591e-16 -2.240063362e-16)
(1 -3.610637604e-16 -2.306685146e-16)
(1 -4.338350771e-16 -2.367157731e-16)
(1 -3.23348339e-16 -3.162741216e-16)
(1 -2.461070165e-16 -3.356091904e-16)
(1 -2.846609347e-16 1.331239368e-16)
(1 -2.502611807e-16 8.889757638e-17)
(1 -2.550644787e-16 1.23954865e-16)
(1 -2.763405926e-16 1.843699621e-16)
(1 -2.999927649e-16 -1.111780503e-16)
(1 -4.924293031e-16 -9.27572894e-17)
(1 -2.330990344e-16 -2.842624013e-16)
(1 -1.456083114e-16 -3.270664993e-16)
(1 -2.466931792e-16 -1.783917812e-16)
(1 -3.623656712e-16 -2.585742663e-16)
(1 -1.136714559e-16 -3.285192086e-16)
(1 -2.363883635e-16 3.80216278e-16)
(1 -2.59002717e-17 -1.432076058e-16)
(1 -2.738450594e-16 3.492378997e-17)
(1 -2.600483956e-16 7.736882832e-17)
(1 -3.001052982e-16 -1.422891436e-16)
(1 -3.567140202e-16 -1.639437006e-16)
(1 -3.527434819e-16 -6.818069857e-17)
(1 -2.270293125e-16 -1.579254082e-16)
(1 6.376551068e-18 -2.328458441e-16)
(1 -1.13167538e-16 -1.366944735e-16)
(1 7.309911038e-17 -1.063224044e-16)
(1 4.646759448e-17 -6.325860005e-17)
(1 4.338128262e-17 1.830141241e-16)
(1 -3.278218945e-16 2.732058128e-16)
(1 -3.009721388e-17 3.634280871e-17)
(1 7.136698496e-17 1.611540082e-16)
(1 -5.770591762e-18 -3.193182556e-17)
(1 -1.185488393e-16 1.974692056e-17)
(1 -2.202135208e-16 9.746202365e-17)
(1 -7.68771493e-17 -8.480132905e-17)
(1 -1.321398002e-16 -1.272229855e-17)
(1 -4.807641934e-18 1.184437727e-17)
(1 1.548288452e-16 -9.505299561e-17)
(1 2.329301166e-16 1.3924865e-17)
(1 3.022225012e-16 -1.149480989e-16)
(1 1.661843011e-16 1.91135865e-16)
(1 -3.804369874e-17 4.595711435e-16)
(1 7.629459017e-17 1.377977027e-16)
(1 -8.293222758e-17 2.336807997e-16)
(1 6.953680864e-17 2.859509368e-17)
(1 -1.222222752e-16 3.507793929e-18)
(1 -3.967174622e-16 -3.67276124e-18)
(1 -3.450089854e-17 -1.848016414e-16)
(1 -3.947686756e-17 -6.476741164e-17)
(1 -1.078149812e-16 -7.094996412e-17)
(1 8.009366694e-17 1.35074816e-16)
(1 1.997672311e-16 8.894845305e-17)
(1 3.677988323e-16 3.481093368e-17)
(1 3.798079542e-16 4.797413533e-17)
(1 1.250723912e-16 -4.673791348e-17)
(1 -6.232908113e-17 3.196448129e-16)
(1 2.104187417e-16 3.84925822e-17)
(1 -1.235653338e-16 1.292331978e-16)
(1 -2.276484284e-16 2.681126547e-18)
(1 -8.514117914e-17 -6.008864189e-17)
(1 6.23883945e-18 -1.667783969e-16)
(1 -1.089658654e-16 -9.742599554e-17)
(1 -5.34056449e-17 1.641638625e-16)
(1 2.235705623e-16 -6.40363125e-17)
(1 -2.1755121e-16 1.467079571e-16)
(1 1.853890676e-16 4.861159967e-17)
(1 -1.094129282e-17 5.320862059e-17)
(1 1.257842617e-16 -1.265735453e-16)
(1 6.862722248e-17 1.250315801e-16)
(1 5.200565247e-16 -3.080425981e-17)
(1 4.891642164e-17 -2.292860425e-16)
(1 -1.796733195e-16 1.428873019e-16)
(1 8.128395565e-17 -1.586611421e-16)
(1 -3.747520994e-16 -3.586706734e-16)
(1 -5.444903775e-16 -1.105242212e-16)
(1 -3.179010012e-16 -5.601760453e-16)
(1 -3.074180281e-16 -4.548668707e-16)
(1 -5.213556518e-16 -3.551646714e-16)
(1 -5.683454626e-16 -4.988561517e-16)
(1 -5.166055414e-16 -7.341217067e-16)
(1 -6.529645444e-16 -8.03280752e-16)
(1 -4.397417358e-16 -4.168728356e-16)
(1 -4.338549162e-16 -4.482372373e-16)
(1 -4.170626826e-16 -2.989507362e-16)
(1 -4.684876139e-16 -4.937156865e-16)
(1 -3.042001435e-16 -7.421732118e-16)
(1 -6.120522773e-16 -4.737963656e-16)
(1 -5.191276754e-16 -5.10174063e-16)
(1 -2.946029396e-16 -4.026563578e-16)
(1 -4.309572481e-16 -1.865431768e-16)
(1 -5.572364202e-16 -3.71595373e-16)
(1 -6.43901977e-16 -4.887296706e-16)
(1 -4.114994892e-16 -4.834369628e-16)
(1 -6.433886102e-16 -4.166403438e-16)
(1 -3.621124226e-16 -5.091492727e-16)
(1 -3.951225947e-16 -5.454100981e-16)
(1 -6.732061288e-16 -6.348176852e-16)
(1 -5.853739289e-16 -2.550068207e-16)
(1 -4.498745829e-16 -1.947658081e-16)
(1 -6.204210543e-16 -2.8913634e-16)
(1 -4.080987471e-16 -3.822050917e-16)
(1 -3.813288913e-16 -4.172793548e-16)
(1 -5.261030009e-16 -4.729357433e-16)
(1 -4.625092769e-16 -3.489311771e-16)
(1 -1.605765178e-16 -3.039109544e-16)
(1 -8.151076385e-16 3.537407626e-17)
(1 -4.644521337e-16 -9.926182354e-17)
(1 -2.02196839e-16 -2.097963106e-16)
(1 -5.445089404e-16 -1.18269339e-16)
(1 -3.240921297e-16 -2.492084802e-16)
(1 -4.276715184e-16 -4.562837149e-16)
(1 -4.975040672e-16 -2.288016586e-16)
(1 -1.971113022e-16 -3.033229947e-16)
(1 -3.204490907e-16 -3.226010742e-17)
(1 -5.026556759e-16 1.204128641e-16)
(1 -4.739283786e-16 3.048433587e-17)
(1 -4.361171391e-16 -2.383725832e-16)
(1 -3.827278454e-16 -1.701754364e-16)
(1 -5.954064291e-16 -9.691707858e-17)
(1 -3.368106721e-16 -3.565732482e-16)
(1 -4.491622776e-16 -3.069640619e-16)
(1 -5.556377264e-16 -2.536913193e-16)
(1 -2.803338949e-16 -4.016410499e-16)
(1 -4.431653453e-16 -2.928137105e-16)
(1 -5.084101762e-16 2.643212334e-16)
(1 -4.005467653e-16 9.163579496e-17)
(1 -3.860489238e-16 7.049032727e-17)
(1 -2.758125701e-16 -3.176178087e-17)
(1 -2.65734085e-16 -7.699764673e-17)
(1 -4.627683603e-16 -8.985779745e-17)
(1 -2.421839461e-16 -3.330543325e-16)
(1 -2.660880525e-16 -3.713669427e-16)
(1 -4.509666084e-16 -1.917621201e-16)
(1 -4.031753292e-16 -2.90245665e-16)
(1 -8.399497147e-17 -2.722454245e-16)
(1 -8.21381268e-17 2.895016954e-16)
(1 -1.658736553e-16 8.467834937e-17)
(1 -2.48790466e-16 7.688656564e-17)
(1 -2.978191162e-16 9.9309145e-17)
(1 -3.272893767e-16 -5.662377282e-17)
(1 -2.843648423e-16 -2.086488957e-16)
(1 -3.909783368e-16 -2.731798084e-17)
(1 -1.798805868e-16 -1.319749644e-16)
(1 1.435801549e-19 -2.477206872e-16)
(1 -1.373066495e-16 -9.17900331e-17)
(1 -7.81628954e-17 -7.803412415e-17)
(1 -5.350349364e-17 -4.499675011e-17)
(1 1.280167363e-16 2.301677446e-16)
(1 -1.415786342e-16 3.707468025e-16)
(1 1.807351909e-17 -1.737020232e-17)
(1 -1.336842465e-16 1.338178133e-16)
(1 -1.686694084e-16 -7.408782244e-17)
(1 -1.616869947e-16 -4.140413143e-17)
(1 -3.254356092e-16 9.379744028e-17)
(1 -1.645835848e-16 -1.485242024e-16)
(1 -5.571078092e-17 -1.220450371e-16)
(1 -4.808908464e-17 -2.031433079e-16)
(1 -1.296834286e-16 -4.228320004e-17)
(1 7.039131363e-17 -1.324345862e-16)
(1 3.972685551e-17 -1.540170045e-16)
(1 5.844171878e-17 1.824357082e-16)
(1 -8.824765722e-17 2.569316856e-16)
(1 1.89051517e-17 1.364864922e-16)
(1 -3.486175231e-17 1.822305816e-16)
(1 3.807115048e-17 -8.406405746e-17)
(1 -5.083412375e-17 -3.222899362e-17)
(1 -3.719475575e-16 1.047454703e-16)
(1 -3.285127905e-17 -1.20672942e-16)
(1 -1.071693134e-16 1.38921513e-17)
(1 -8.915347408e-17 -7.897025398e-17)
(1 -4.064652083e-18 2.365046253e-17)