/*--------------------------------*- C++ -*----------------------------------*\
| =========                 |                                                 |
| \\      /  F ield         | OpenFOAM: The Open Source CFD Toolbox           |
|  \\    /   O peration     | Version:  2212                                  |
|   \\  /    A nd           | Website:  www.openfoam.com                      |
|    \\/     M anipulation  |                                                 |
\*---------------------------------------------------------------------------*/
FoamFile
{
    version     2.0;
    format      ascii;
    arch        "LSB;label=32;scalar=64";
    class       volScalarField;
    location    "1.2";
    object      p;
}
// * * * * * * * * * * * * * * * * * * * * * * * * * * * * * * * * * * * * * //

dimensions      [0 2 -2 0 0 0 0];

internalField   nonuniform List<scalar> 
42875
(
-1.145995715e-15
-1.398613664e-15
-5.766700501e-16
-1.461329317e-15
-1.578157989e-15
-8.405260747e-16
-9.535499836e-16
-6.025456206e-16
-7.914244695e-16
-8.037966044e-16
-1.690235257e-15
-1.240919136e-15
-9.297241674e-16
-1.077420323e-17
-6.120450911e-16
-1.006180497e-15
-1.950564919e-16
-5.536653159e-16
-7.526761462e-16
-1.069806323e-15
-2.410398182e-15
-1.626710536e-15
-1.274406701e-15
-1.105162491e-15
-8.146879102e-16
-5.830063962e-16
3.187197906e-16
-3.230763918e-17
-7.442973391e-16
-2.646720202e-16
1.645317247e-16
-6.635834464e-16
-6.797513084e-16
-7.439898264e-16
-3.170957972e-16
-2.179030416e-15
-1.465429312e-15
-1.685290522e-15
-1.512200051e-15
-1.489878286e-15
-1.095016736e-15
-3.937658573e-16
-6.585199468e-16
-7.826038154e-16
-5.899970456e-16
-4.970338206e-16
4.686482902e-16
-4.340000788e-16
-6.389153232e-16
-5.764200563e-16
-2.502157838e-17
-7.764638743e-16
-1.184445387e-15
-4.746301697e-16
-7.833289375e-16
8.513785339e-17
-1.450917216e-15
-1.810707378e-15
-1.400566854e-15
-1.342123768e-15
-1.365705284e-15
-1.559024528e-15
-1.302678452e-15
-1.58588892e-15
-1.102376017e-15
-8.15124724e-16
-6.574331647e-17
-5.482830586e-16
-7.632720016e-16
-6.821925167e-16
-1.171079362e-15
-6.44685118e-17
-8.541096627e-17
-5.497825716e-17
-4.856610748e-16
-3.811993461e-16
-6.720761439e-16
1.632499398e-16
-3.641941124e-16
-7.755188533e-16
-5.07640927e-16
-1.037344236e-15
-3.580869083e-16
-4.623007972e-16
-6.198508949e-16
-1.387698421e-15
-1.072040747e-15
-2.230850635e-15
-1.269201603e-15
-1.176359812e-15
-1.372069306e-15
-1.465046168e-15
-1.62196645e-15
-8.048898758e-16
-8.617839032e-16
-9.785442025e-16
-1.084043716e-15
-9.762284108e-16
-8.333937474e-16
1.957491176e-16
-1.797890608e-16
-3.85321038e-16
-8.299744194e-16
-6.425752471e-16
-5.535540139e-16
8.640491635e-17
1.465541454e-16
-1.429523686e-16
-2.84563769e-16
-2.324432302e-16
-1.732087994e-16
-6.620326613e-16
6.000981954e-16
-8.729297488e-18
-7.833184409e-17
-6.158426093e-16
-1.060600574e-15
-4.753521496e-16
-4.453772299e-16
2.49159938e-16
-2.627408454e-16
-6.782080341e-16
-3.847496107e-16
-1.161993346e-15
-8.806257093e-16
-5.367576183e-16
-1.412899733e-15
-1.245916649e-15
-9.349574862e-16
-1.303815927e-15
-8.571513502e-16
-1.090745556e-15
-1.218351929e-15
-1.041986729e-15
-2.575968812e-16
-6.544277401e-16
-8.142291336e-16
-8.920432007e-16
-7.931675264e-16
-8.772928159e-16
-7.947344247e-16
-1.861888732e-16
6.360802214e-17
-1.230976151e-16
-9.62423363e-16
-5.800526559e-16
-3.101794798e-16
-4.614912161e-16
3.616518859e-16
1.497841128e-16
2.827931978e-16
-1.147723958e-16
7.268793427e-17
-2.100825653e-16
-3.458194967e-16
-4.412683881e-16
1.405073969e-15
4.707258954e-16
-4.641006037e-16
-1.528917798e-16
-4.48474125e-16
-1.22276322e-15
-6.30473364e-16
-4.304327902e-16
1.797162944e-16
3.473595484e-16
-8.043480764e-16
-5.167902076e-16
-1.195117093e-15
-3.332833219e-16
-8.487800745e-16
-1.165279415e-15
-1.036784324e-15
-3.193456157e-16
-6.918357693e-16
-1.199061922e-15
-1.088038844e-15
-1.355314523e-15
-9.120532771e-16
-6.923185708e-16
-1.282429162e-15
-6.808033962e-16
-8.432038554e-16
-8.315369241e-16
-4.553317754e-16
-2.634301386e-16
-2.231370223e-16
-3.119397693e-16
-4.88254003e-16
-8.919981124e-16
-6.760178222e-16
-6.176383695e-16
-7.715955938e-16
4.300979834e-16
2.265143019e-16
4.509479188e-18
-4.334593844e-17
-3.281214833e-16
-3.732854615e-16
-4.009991783e-16
-3.164607215e-16
6.473672289e-16
4.809884738e-16
5.086704969e-16
-1.237999097e-16
-1.701955663e-16
-8.387245397e-17
-1.536694347e-16
-1.978150744e-17
-4.487638582e-16
1.408491096e-15
8.138351362e-16
4.670665156e-16
3.200227715e-17
2.143839007e-17
-4.179238665e-16
-8.353401027e-16
-1.626449324e-16
-6.951886505e-16
5.375398977e-16
7.680035001e-16
-1.397030976e-16
-4.684408422e-16
-1.188907688e-15
-7.593088158e-16
-8.25578461e-16
-1.200255577e-15
-8.271335775e-16
-6.791195579e-16
-8.672333028e-16
-1.17663445e-15
-7.307840795e-16
-7.757406806e-16
-1.758222094e-16
-5.870341217e-16
-1.195176447e-15
-5.155072052e-16
-7.342338433e-16
-9.942534664e-16
-7.661397856e-16
-1.844882437e-16
-4.707838689e-16
-4.471729032e-16
-5.662271497e-16
-3.934174054e-16
-4.359154947e-16
-3.262587968e-16
-2.288845749e-17
4.762245715e-16
-9.869400821e-17
-4.122653565e-16
-3.173805159e-16
-5.938458071e-16
-5.146248766e-16
-3.686251755e-16
-2.71158192e-16
7.193188914e-16
4.02559959e-16
4.507135559e-16
9.951432727e-17
-4.980477063e-17
-2.781806939e-16
-5.033146529e-16
-1.088460247e-16
-2.80934089e-16
5.719040893e-16
6.861114636e-16
7.656155967e-16
1.738957634e-16
-1.739714526e-16
-1.124078095e-17
-1.001948267e-16
-2.115264453e-16
2.392525457e-16
-4.276686283e-17
6.83281304e-16
8.234326775e-16
6.825965057e-16
8.796869158e-16
-2.769600554e-16
7.875045605e-17
-4.869946711e-16
-6.569976056e-16
3.506801062e-17
-2.606154267e-16
1.222826074e-16
4.765831479e-16
4.694187366e-16
-2.528063306e-17
-4.825538197e-16
-3.998824185e-16
-2.169284468e-16
-1.366769683e-15
-6.039169568e-16
-9.119608286e-16
-9.159264402e-16
-1.22216498e-15
-5.795592814e-16
-8.086955785e-16
-5.792668602e-16
-5.017149291e-16
-1.164308483e-15
-5.615716834e-16
-5.748378353e-16
-5.130329329e-16
-3.803238383e-16
-6.399704244e-16
-2.023924913e-16
-8.574646211e-16
-6.98762459e-16
-3.193734298e-16
-8.233781619e-16
-4.252140204e-16
1.877413461e-16
-5.139264244e-16
-1.48674646e-16
-2.032829116e-16
-1.154887687e-16
-1.837466127e-16
-5.722690125e-17
-5.357255363e-17
-4.003612562e-16
3.268036027e-16
2.514879079e-16
3.131242008e-17
-1.275644201e-16
-1.563638755e-16
-3.593199899e-16
-3.041353927e-16
-1.501003301e-16
-6.07778706e-17
9.763560596e-16
5.862596181e-16
3.955474028e-16
-7.440642222e-18
-2.792257841e-17
-3.165967377e-16
-6.61423776e-16
-2.576799024e-16
-1.377588752e-17
-3.031669124e-17
6.435071869e-16
1.362114243e-15
1.251171077e-15
5.728178496e-16
1.624623639e-16
1.559344244e-17
-4.04313141e-16
1.234413035e-16
1.344827031e-16
2.685711837e-16
5.093272329e-16
1.271867347e-15
4.84337781e-16
1.126627433e-15
8.340145321e-16
3.308234868e-16
2.298301516e-16
-5.362852471e-16
-2.413331967e-16
-8.682792898e-18
-1.741677713e-16
-1.621397683e-16
6.780857743e-16
2.591402217e-16
1.687967485e-16
3.313495386e-17
3.144743815e-16
-1.582158472e-16
-3.234792158e-16
-8.145277347e-16
-5.887640926e-16
-4.996572837e-16
-4.166151781e-16
-9.045172777e-16
-8.009384201e-16
-5.495958582e-16
-9.850156372e-16
-9.03670251e-16
-9.301040074e-16
-9.491338468e-16
-5.915310596e-16
-8.270415274e-16
-2.432782956e-16
-1.495745864e-16
-8.797722069e-16
-8.697824218e-16
-8.091776473e-16
-4.127496323e-16
-5.278077889e-16
-1.974152664e-16
-2.842647258e-16
-6.249745576e-16
-2.196101047e-16
-3.670239305e-16
-4.481817689e-16
-5.88794877e-16
-2.755536586e-16
-1.341675711e-16
-2.014071148e-17
1.247474945e-16
1.000529843e-17
1.912148773e-17
2.416718422e-16
-3.807965662e-16
1.485000546e-16
-8.593703166e-18
-2.758050912e-16
-1.102670593e-16
9.857489774e-16
5.659582007e-16
-5.986858086e-17
-1.253652331e-16
1.24583719e-16
-2.986164211e-16
-6.007353659e-16
-4.590227969e-17
-2.022922458e-16
-1.96858668e-16
8.845812615e-16
8.07249736e-16
6.297087588e-16
2.865287224e-17
4.968366823e-16
6.373389e-17
-4.806779723e-16
-4.479622598e-16
1.201935128e-17
-2.964079798e-17
1.442626585e-16
1.206051618e-15
1.004774497e-15
8.569779602e-16
8.805109413e-16
5.119761961e-16
4.386463204e-16
6.448984471e-17
-1.604364804e-16
2.24087518e-16
2.392766528e-16
4.704457851e-16
6.082406403e-16
2.267443069e-15
9.299623274e-16
1.14084141e-15
1.048752114e-15
6.784036015e-16
-1.394780149e-16
-3.364758714e-17
-1.431065838e-16
2.406517611e-16
1.131448859e-16
8.244037551e-17
-1.464629699e-16
1.050773766e-15
2.091390828e-16
1.721032177e-16
5.045010602e-16
4.211659811e-16
-2.782303162e-17
-5.604848125e-17
-2.562895028e-16
-4.002521171e-16
-6.109309573e-16
-5.394550616e-16
-4.892000327e-16
-7.649904437e-16
-7.351060063e-16
-3.610195485e-16
-7.983782587e-16
-5.917840457e-16
-8.792259015e-16
-7.814283236e-16
-6.784110358e-16
-7.388681293e-16
-9.982908764e-16
-1.070735413e-15
-6.996803874e-16
-7.675346706e-16
-6.750996585e-16
-9.950925413e-16
-4.023539464e-16
-6.6825634e-16
-4.65909742e-16
-1.97064041e-16
-8.422741848e-16
-6.254759257e-16
-4.709657016e-16
-6.685775761e-16
-3.466655565e-16
-2.95742402e-16
4.332580127e-16
-4.462033667e-17
-8.476545861e-17
3.681800959e-16
-7.098655563e-16
1.97683448e-16
-6.799699359e-19
-8.235783903e-16
-1.235232088e-16
4.709790568e-16
-1.319923097e-16
2.07350191e-16
5.932751153e-16
2.012229319e-16
-1.002945491e-16
1.412703424e-16
-1.047696023e-16
-2.276824701e-16
-4.816399452e-16
9.405884437e-16
5.900167626e-16
1.759048433e-16
1.055607917e-16
1.989642551e-16
2.49897658e-16
1.494098928e-16
-2.988107798e-16
-1.086203243e-18
-2.092039562e-16
-7.010090837e-16
1.14334762e-15
4.488324396e-16
5.884242016e-16
2.502962133e-16
7.465941251e-16
2.469175699e-16
1.320390024e-16
-8.415391221e-17
-7.805432067e-17
3.070617174e-16
-9.259981876e-17
-7.505926868e-17
1.164376896e-15
1.210299561e-15
6.847574843e-16
1.072504531e-15
8.814211017e-16
8.72663055e-16
7.071765395e-17
8.922604564e-17
-7.264380388e-17
2.98436531e-16
2.785508873e-16
7.026350649e-16
5.429276948e-16
2.390275576e-15
1.016430108e-15
1.746474696e-15
5.81979923e-16
5.472990686e-16
7.979115869e-16
3.124551044e-16
-2.452362488e-16
2.174661255e-16
2.280328924e-16
2.216028829e-16
2.478252689e-16
-4.069706744e-17
8.702546602e-16
5.246924716e-17
-1.620872376e-16
2.801503657e-16
2.235472636e-16
-5.769812186e-18
2.490647429e-16
3.617946937e-16
6.159266531e-17
-3.982912824e-17
-1.522066568e-16
-2.546477959e-16
-3.829247617e-16
-3.95836549e-16
-3.872991105e-16
-2.61232565e-16
-2.89688683e-16
-3.03971586e-16
-8.637586665e-16
-6.197078311e-16
-5.440094817e-16
-1.24832166e-15
-7.664044145e-16
-7.96373937e-16
-1.049493029e-15
-2.933028017e-16
-5.571550969e-16
-5.647721549e-16
-1.005761403e-15
-5.475753664e-16
-1.121417625e-15
-6.703382353e-16
-8.654204733e-16
-6.519941551e-16
-1.122973729e-15
-5.755068932e-16
-4.444589373e-16
1.022377477e-16
-2.380238446e-17
-2.038079634e-16
-7.699944023e-16
-2.621900313e-16
-2.343999199e-16
-6.00214181e-16
-1.845690532e-16
-1.094291452e-16
1.673394703e-16
3.307177757e-16
1.092799435e-16
3.996710771e-16
-2.553495937e-16
-7.960137505e-17
2.53869311e-16
-2.597819958e-16
-1.720007325e-16
-3.522996669e-16
1.028204085e-15
4.216590076e-16
-4.173340942e-17
5.776367478e-16
5.831939964e-16
1.007200238e-16
6.665786159e-17
7.807580058e-17
-2.85335591e-17
-2.917358505e-16
-5.097046577e-16
9.840510449e-16
6.749821594e-16
4.455973308e-16
1.120168885e-16
7.41022032e-16
1.702872477e-16
5.19152105e-16
2.500690916e-16
-1.813757453e-16
-4.905571113e-17
-2.49567963e-16
-5.466684014e-16
6.58084235e-16
5.494888006e-16
8.627180889e-16
7.385489051e-16
6.514746529e-16
8.147835627e-16
4.425816469e-16
4.370950367e-16
-2.447112376e-16
-6.781622009e-18
2.109939813e-17
-4.959335768e-17
-6.058220853e-17
1.24455618e-15
1.46747676e-15
1.07293512e-15
8.747352858e-16
1.105146825e-15
9.004448358e-16
6.07120135e-16
-1.493843944e-16
3.300234799e-16
-6.6771754e-17
3.92382071e-16
1.617148717e-17
6.54455567e-16
5.08997648e-16
2.159101898e-15
1.740398967e-15
8.348362999e-16
1.511811315e-15
4.955162319e-16
1.569711881e-15
9.80199713e-16
1.472823269e-16
3.369122125e-17
6.257666696e-16
2.281773151e-16
2.914066426e-16
-8.507072689e-17
4.805447137e-16
3.651501805e-16
2.501414119e-19
-1.907088171e-16
2.053785192e-16
2.423431358e-16
1.144080419e-16
1.09297283e-16
4.17239184e-16
1.362185687e-16
1.384619896e-16
1.247181541e-16
3.410536671e-16
6.804652576e-17
-1.454978039e-16
-4.043177068e-16
-6.449072622e-17
-5.02262596e-17
-3.063080477e-16
-6.888897261e-16
-5.383633279e-16
-3.288942265e-16
-5.781350911e-16
-3.125746337e-16
-6.465292559e-16
-5.202064223e-16
-5.872621883e-16
-4.593872991e-16
-7.484653203e-16
-8.270087585e-16
-6.377187e-16
-7.302503196e-16
-8.42834167e-16
-6.392336231e-16
-4.155836885e-16
-4.532362662e-16
-4.124485357e-16
-4.546884169e-16
-4.29722105e-16
-7.372834525e-16
-8.653087397e-16
-3.696470887e-16
-5.322388609e-16
-3.097121441e-16
-4.634787285e-16
-2.228944964e-17
2.852569605e-16
9.453340818e-17
4.223149122e-16
-8.606654492e-18
-1.448434468e-16
-3.522201827e-16
-7.467889222e-17
2.272900104e-17
-5.431496837e-16
-5.642591361e-17
4.03989448e-17
1.367434016e-15
3.926693477e-16
5.151250534e-16
5.55137565e-16
4.522076604e-16
4.910851478e-17
2.466207188e-16
2.018434934e-16
-2.435777984e-16
-2.9364169e-16
1.570557362e-16
1.127211449e-15
1.19699846e-15
5.029138678e-16
7.906728211e-16
4.271368615e-16
5.014282164e-16
1.568312579e-16
-1.311880671e-16
-4.312964418e-17
-9.933388018e-17
-3.0926333e-16
-6.176712268e-16
8.486175237e-16
8.861601213e-16
9.594551763e-16
1.276892873e-16
8.982309479e-16
4.612607742e-16
8.371700843e-16
3.004891275e-16
-2.352236838e-16
-1.784863629e-16
1.648882567e-16
-4.264368549e-16
-4.449757587e-16
1.345723475e-15
7.835194621e-16
6.334173611e-16
9.5027598e-16
1.183396939e-15
5.918328341e-16
3.622583644e-16
6.704302827e-16
2.896778181e-16
9.349510271e-17
1.292858028e-16
-5.805097562e-18
2.407875149e-16
-1.346428611e-17
1.444159814e-15
1.543046499e-15
1.478285747e-15
1.20322631e-15
1.670777178e-15
9.556167541e-16
8.401909728e-16
4.118550325e-16
8.415766632e-16
2.204495522e-16
1.29088163e-16
3.064903118e-16
3.177238104e-16
4.674360131e-16
3.487954961e-16
1.948196132e-15
1.779217099e-15
8.905469799e-16
1.203245724e-15
1.743698549e-15
1.174455187e-15
1.131127129e-15
7.384233808e-16
5.994719066e-16
-1.657433969e-16
4.671834004e-16
9.524962754e-17
-4.9544847e-16
6.254226653e-16
4.792965806e-16
-2.373957967e-16
6.198504382e-17
9.541359153e-17
2.874718518e-17
-1.236177043e-16
1.80034261e-16
3.476671036e-16
7.817580194e-17
2.808452307e-16
6.188282057e-16
2.079255049e-16
6.244692174e-16
1.802402677e-16
3.034574716e-16
-5.787766149e-17
-2.135933883e-16
2.346443239e-16
6.920425512e-17
-2.38642602e-16
-4.133888609e-16
-1.368684432e-16
-2.109815998e-16
-1.13198817e-18
-3.964164586e-16
-3.92763262e-16
-6.76514914e-16
-3.239204853e-16
-2.992792479e-16
-4.113184732e-16
-8.570326527e-16
-3.448246873e-16
-5.47282872e-16
-4.944656272e-16
-5.489988057e-16
-9.563813322e-17
-2.991995367e-16
-5.556263128e-16
-8.718555737e-16
-5.460148831e-16
-4.845672851e-16
-8.62168409e-16
-5.13830179e-16
-6.635803924e-16
-1.728307392e-16
-1.5355034e-16
-1.831839512e-16
4.284117308e-17
-1.730365159e-16
-3.30364499e-16
-2.939995337e-16
-4.896032067e-16
-2.907587645e-16
-1.771748628e-16
-1.927981979e-16
2.442898946e-16
-8.457263521e-17
8.817085966e-16
-6.239596973e-18
5.508026485e-16
1.361036387e-16
-3.247047194e-16
-6.835889656e-17
-4.944879265e-16
-2.441051568e-16
-2.548859314e-16
4.621276049e-16
3.152263043e-16
1.160911301e-15
8.948110271e-16
5.67024213e-16
9.005504806e-16
-1.739907073e-16
1.320406387e-16
2.841460404e-16
4.211757052e-17
4.255711287e-16
1.100774772e-16
1.412707532e-16
-4.134516659e-16
1.010969851e-15
1.024905207e-15
8.379847129e-16
7.098559993e-16
8.84325232e-16
3.499577247e-16
2.949199163e-16
-9.079753352e-18
-4.276950712e-16
5.728747546e-17
1.098729906e-16
-7.484854003e-16
-6.694566496e-16
1.421959518e-15
1.105734905e-15
6.997556222e-16
8.596067451e-16
6.267722904e-16
6.619511249e-16
5.975666575e-16
6.506870479e-16
-1.009096847e-16
1.858042568e-16
-1.066841759e-16
-1.755110761e-18
-2.373962123e-16
-8.566545018e-16
1.407019335e-15
1.08549079e-15
1.091754921e-15
9.123246019e-16
1.14335746e-15
9.863852716e-16
5.234944611e-16
4.715656831e-16
3.046093544e-16
1.116272901e-17
2.50554257e-16
2.853901572e-17
3.917718363e-16
-1.123552201e-16
-1.723724401e-16
1.344475186e-15
1.599403031e-15
1.703542417e-15
1.648535899e-15
1.159614409e-15
1.149857988e-15
1.351042279e-15
6.976309712e-16
3.839521501e-16
5.493846465e-16
2.634423587e-16
3.178519466e-16
5.517074398e-16
2.826811796e-16
1.03758357e-16
8.519145287e-16
2.385804992e-15
1.904937207e-15
1.491717793e-15
8.425793227e-16
1.177257521e-15
2.213336731e-15
1.52519735e-15
1.31016365e-15
5.569535867e-16
7.947943549e-16
4.095259616e-16
8.095608081e-16
-9.007857202e-17
9.576812464e-17
1.915738514e-16
1.755095963e-16
-1.930320742e-16
-5.597614344e-16
3.753987914e-16
2.070879089e-18
1.257634836e-16
1.49537266e-16
1.638403874e-17
-1.019654533e-16
1.857105502e-17
3.240987609e-16
6.385866338e-16
2.720640823e-16
9.302426612e-17
6.80491236e-16
4.671227063e-16
-2.832716973e-16
5.126092483e-16
1.293011375e-16
4.3684256e-16
2.360775218e-16
3.63886399e-17
-3.521669023e-17
-7.072470737e-17
5.473819092e-16
-1.229275998e-16
-3.908583134e-16
-1.918834818e-16
-1.945965504e-16
4.190899563e-16
-8.068726099e-17
-2.460419127e-16
-3.639028646e-16
-3.884551708e-16
-4.845971045e-16
-1.124545328e-16
5.566790694e-18
-2.87226484e-16
-6.912089178e-16
-3.561634935e-16
-4.916980009e-16
-4.489000216e-16
-5.575283061e-16
-3.380061676e-16
3.779620894e-16
-3.540389268e-16
-4.514795688e-16
-4.428217486e-16
-4.675805252e-16
-6.023063917e-16
-2.001800423e-16
-4.140242954e-16
-2.235428061e-16
-2.733581472e-16
4.522725465e-18
5.10692907e-17
-2.020962473e-16
8.025351779e-16
1.276229773e-16
-1.160923463e-17
2.508116473e-17
-2.609567892e-16
1.013084811e-16
1.754686145e-16
-3.645899326e-16
-2.154645944e-17
1.513081014e-16
-8.842984301e-17
9.192137916e-16
7.63751265e-16
5.131216063e-16
5.391520723e-16
6.398019281e-17
2.51196721e-16
6.880631402e-17
-9.529858396e-17
1.358168472e-16
1.050439885e-16
4.591249927e-16
3.883675051e-16
1.289811756e-15
6.99969918e-16
5.535554076e-16
7.602581487e-16
1.847796503e-16
8.146394791e-17
6.865924317e-16
1.730763963e-17
3.946060554e-16
3.160339828e-16
8.905554666e-18
5.363714876e-17
-6.269497082e-16
1.216804157e-15
1.403009495e-15
9.66219223e-16
8.333482941e-16
8.853508396e-16
8.804039794e-16
7.889251467e-16
7.89184754e-16
4.541003907e-16
2.790380644e-16
3.293103417e-16
-7.909545076e-17
-3.928620255e-16
-6.016039881e-16
1.619831606e-15
1.464720101e-15
9.12778144e-16
6.1912933e-16
6.706888476e-16
9.162471902e-16
9.013728101e-16
7.6648981e-16
3.701172888e-16
2.583921615e-16
3.199605384e-16
1.662654357e-16
-3.871572942e-16
-5.320492549e-16
-6.03024345e-16
1.486330508e-15
1.2461376e-15
1.318338618e-15
9.449921813e-16
1.153959317e-15
1.121360994e-15
9.183947243e-16
9.244003167e-16
3.486819311e-16
5.801369106e-16
2.272218464e-16
4.626557356e-16
3.548010839e-16
-9.03062552e-17
-1.082730598e-16
3.435336637e-16
1.655228716e-15
1.874035713e-15
1.637135695e-15
2.228770297e-15
1.772606587e-15
1.561375821e-15
1.370431323e-15
9.162775513e-16
5.391312252e-16
4.31730444e-16
7.083872067e-16
6.627483384e-17
1.385503247e-16
1.262664625e-16
2.024044374e-16
-1.421823147e-16
5.877536173e-16
2.864042641e-15
2.00122368e-15
1.921985163e-15
1.229311058e-15
8.198030812e-16
1.426591469e-15
1.918515919e-15
9.50606509e-16
6.529086335e-16
2.548834641e-16
6.920695307e-16
3.44921467e-16
-1.676243738e-16
-2.174109663e-17
2.442585625e-16
4.877321816e-16
2.920701512e-16
7.356043517e-16
-6.191244687e-16
-1.242124496e-16
1.578682811e-16
2.890210847e-16
3.253838519e-16
3.546196066e-17
3.161500402e-16
8.059812816e-17
4.796177182e-17
4.691997478e-16
9.385648124e-17
2.788819296e-16
1.72490012e-16
2.906616644e-16
-6.923737606e-17
3.597968038e-16
1.539671413e-16
4.643150298e-16
7.752199486e-16
2.078754977e-16
-2.054516612e-16
2.289501658e-16
3.03044886e-16
2.243208297e-16
1.921506186e-16
1.043980249e-16
1.724260849e-16
6.96599036e-16
4.616261204e-16
-1.044921364e-16
-1.203158141e-16
-2.894272869e-17
7.637042704e-17
-1.863590172e-16
2.845867346e-16
3.611108628e-16
-2.615733682e-16
-2.645909112e-16
-3.171264685e-16
6.370090025e-17
-3.731098248e-16
-5.63186789e-16
2.101939081e-16
3.252762112e-16
-3.534547354e-16
-7.696814554e-16
-1.083860802e-16
-2.194346625e-16
-7.116831898e-16
-1.08925124e-16
-7.740435507e-16
6.325364466e-17
3.850355023e-16
-3.023107107e-16
-2.372116311e-17
1.093132497e-16
-2.712498378e-16
-4.363094613e-16
-2.411310842e-16
-1.115576564e-16
-2.082519905e-16
-1.071711775e-16
4.105536102e-17
3.736561897e-16
-4.1011256e-16
-2.184950636e-16
5.80673816e-16
5.567068886e-16
-1.407794906e-16
2.885898657e-16
9.852645901e-17
2.84535654e-17
8.981763028e-17
1.521125672e-16
-3.022465546e-16
1.086459549e-16
2.652139139e-16
2.164606041e-16
1.342986205e-15
9.583858237e-16
8.121684735e-16
8.56628727e-16
3.345039295e-16
1.097689009e-16
2.544647531e-16
4.451342915e-16
5.978080286e-16
5.137539649e-16
1.446924601e-16
2.449350025e-16
-4.320142471e-17
9.255979234e-16
1.240308569e-15
7.953876616e-16
9.772470863e-16
7.232581107e-16
5.430075808e-16
7.399545061e-16
7.309095027e-16
2.08859567e-16
4.719693015e-16
5.150289434e-16
1.482818025e-16
-4.473487348e-16
-7.549424071e-16
1.797864278e-15
1.289745055e-15
1.234440319e-15
9.529419703e-16
8.795591907e-16
8.567474861e-16
1.015211722e-15
9.053529298e-16
7.527050316e-16
3.178295474e-16
2.097219666e-16
2.54100034e-16
-3.122117484e-17
-6.063568479e-16
-9.136696584e-16
1.702740476e-15
1.705076669e-15
1.60691487e-15
8.124754796e-16
1.317915685e-15
1.320467383e-15
1.027437051e-15
9.766996657e-16
5.872556515e-16
5.669485938e-16
4.094438204e-16
3.658419342e-16
2.997512133e-16
-5.106421426e-16
-3.399516624e-16
-4.435757689e-16
1.497819895e-15
1.15707947e-15
1.486269002e-15
1.11368213e-15
1.392317491e-15
1.193475491e-15
1.195990153e-15
7.613983941e-16
7.703723309e-16
6.19778675e-16
5.371950119e-16
2.86280252e-16
4.453137414e-16
2.02806144e-16
-1.467063631e-16
1.245034769e-16
7.00035679e-17
1.606039069e-15
2.130493334e-15
1.692506986e-15
1.974029854e-15
1.236160502e-15
1.750296631e-15
1.754613099e-15
1.128068526e-15
5.588495831e-16
7.999496806e-16
6.546440229e-16
7.65769947e-16
2.3598054e-16
9.464522593e-17
9.654398822e-18
1.775050971e-16
-1.269235832e-16
3.507999747e-16
2.62839412e-15
2.68790199e-15
1.976874885e-15
1.463241385e-15
1.454238404e-15
1.550198615e-15
1.522264717e-15
1.496341751e-15
3.740548251e-16
4.647795635e-16
8.190089347e-16
7.824778731e-16
3.74028901e-17
3.304640353e-16
-5.398202148e-16
3.834808766e-16
4.301622697e-16
9.580081479e-17
5.371935869e-16
-6.371223226e-16
-6.900054094e-16
6.598871557e-17
-4.902228903e-17
-5.574209529e-17
-1.335458747e-16
5.879214457e-16
1.617864554e-16
-9.613702306e-17
2.089993679e-16
2.755259015e-16
3.003212444e-16
-3.908745265e-17
1.441597323e-16
5.213575751e-16
2.959068816e-16
1.801606011e-16
2.450056175e-16
3.926961123e-16
2.597756973e-16
3.07665035e-16
3.75119738e-16
2.45823446e-16
3.707579316e-16
5.759081343e-16
1.210598649e-16
3.909993349e-16
4.755573124e-16
8.153943387e-16
1.419657359e-16
1.081464147e-16
1.855723585e-16
2.623020987e-16
-2.073485606e-17
1.264151696e-16
9.389479146e-16
2.257824438e-16
1.396365744e-16
-4.992364237e-16
-6.114253951e-17
6.998621222e-18
-1.946198146e-16
1.487085631e-17
4.642589439e-16
4.344247478e-16
-1.191053562e-16
-5.742284772e-16
-2.339945026e-16
-2.873384188e-16
-2.372693785e-16
-4.106342758e-16
-1.362672559e-16
3.326490154e-16
-6.786043842e-17
7.779033517e-17
-5.074236341e-16
-3.548342216e-16
-1.235723154e-16
-5.215604507e-16
-1.596100753e-16
-6.019877327e-16
-1.264876344e-17
1.041356875e-16
-6.886851624e-17
-1.095032865e-16
-3.677061908e-16
8.300436957e-16
2.513754406e-16
-1.4909182e-16
-1.040794709e-16
-1.786565102e-16
-3.531032928e-16
-2.841314701e-16
-1.606724997e-16
1.81283881e-16
1.521109914e-16
-2.152254093e-16
-2.569448814e-16
9.302135869e-16
6.747783475e-16
5.459601589e-16
2.052483549e-16
4.798534898e-16
5.449391032e-16
3.156758122e-17
5.02913177e-17
2.850877053e-18
3.647295568e-17
3.854649645e-16
-1.449373842e-17
2.776975978e-16
1.266515306e-15
1.128378025e-15
8.970388603e-16
7.692452321e-16
2.966490254e-16
3.26615865e-16
1.11553766e-16
2.407917262e-16
6.208381671e-16
4.754387644e-16
2.584987734e-16
2.249217181e-16
9.516445568e-18
-2.414923103e-16
1.781292479e-15
1.118846677e-15
9.571389082e-16
1.065542912e-15
1.005831803e-15
8.021267497e-16
8.198779133e-16
6.788042477e-16
4.087759189e-16
1.74207951e-16
2.299212529e-16
3.946080588e-16
-7.572467014e-17
-3.562992519e-16
-5.554103771e-16
1.671390105e-15
1.980465477e-15
1.669252686e-15
1.312550584e-15
1.079677086e-15
1.035297855e-15
1.082646522e-15
8.714434208e-16
9.507521247e-16
9.150422985e-16
7.195075475e-16
-1.839705268e-17
-1.618385832e-16
-2.039505623e-16
-1.971513671e-16
-5.268435857e-16
1.775117549e-15
1.47747787e-15
1.582907002e-15
1.205555308e-15
1.290181401e-15
1.123411035e-15
1.312811768e-15
1.104224938e-15
9.399249935e-16
7.490679666e-16
5.739608055e-16
4.4658887e-16
6.203469912e-16
3.011075559e-16
8.617542925e-17
-7.266834383e-17
-5.89260131e-16
1.665124956e-15
1.748563119e-15
1.439218015e-15
1.841249047e-15
1.534592239e-15
1.207914938e-15
9.881689904e-16
1.172873905e-15
1.141345067e-15
7.555858389e-16
9.859821798e-16
5.669486507e-16
5.454339477e-16
4.131905631e-16
2.395062927e-16
6.807239686e-17
2.492088858e-17
4.27173667e-16
1.856035642e-15
2.029523239e-15
2.008460863e-15
1.856146967e-15
1.388375935e-15
1.623656901e-15
1.613034882e-15
1.539016339e-15
1.351490054e-15
9.002337644e-16
1.091810496e-15
1.012398806e-15
7.708143956e-16
3.403133402e-16
4.323802417e-16
-6.350923924e-18
-5.320763523e-17
1.310646123e-16
6.161605924e-16
2.812628589e-15
1.905550945e-15
2.477942876e-15
1.474677936e-15
1.914294519e-15
1.919589143e-15
8.798806876e-16
1.773056501e-15
1.300399539e-15
8.560350725e-16
7.399278388e-16
2.34338095e-16
5.467623641e-16
-2.285801224e-16
-4.326236631e-16
3.198028981e-16
-2.082529561e-16
5.525101206e-16
-1.527865467e-16
9.477366592e-16
-1.375864288e-15
-2.964398548e-16
4.042693341e-17
-2.793192982e-16
1.463900751e-17
6.895952458e-17
7.445031896e-17
-2.120903516e-16
-3.759557261e-16
-1.819502225e-16
4.077350878e-16
6.086243732e-16
-1.622006312e-16
-1.503315371e-16
6.564900138e-16
7.753454689e-16
2.337105426e-16
2.694995496e-16
1.925231557e-16
4.474241711e-16
9.849006002e-16
2.212419295e-16
2.390263508e-16
5.180277927e-16
5.078234278e-16
6.318043428e-16
4.981214601e-16
2.520946806e-16
4.3149602e-16
2.809723259e-16
5.508214827e-16
4.090841961e-16
5.818867861e-16
3.387191689e-16
5.540584574e-16
6.54667255e-16
7.398114497e-16
4.006144351e-16
-9.199736142e-17
-7.194326566e-17
2.568336183e-16
2.709955509e-16
-3.42304829e-16
2.307615292e-16
8.795928307e-16
2.142305146e-16
1.489988625e-16
-1.941259466e-16
-1.269534611e-16
-1.357563552e-16
3.230068314e-16
-5.314276124e-17
3.346209338e-17
6.26069831e-16
2.78508073e-16
-3.028091723e-16
-8.67197935e-17
-1.727373108e-16
-4.084203222e-16
-2.582616867e-16
-3.442765242e-16
-3.001867737e-16
-8.569104275e-17
-3.061759738e-17
2.621479762e-16
6.570651545e-17
4.318855087e-16
-2.402819651e-16
7.335366312e-17
-2.745315856e-16
-2.631331415e-16
-3.01025714e-16
-2.656211967e-16
5.968710261e-17
-2.522112186e-17
2.180575205e-16
-6.756915423e-17
-1.189890329e-16
7.622467078e-16
8.933145391e-16
3.044858066e-16
2.382653219e-16
9.964153839e-17
2.373309944e-16
-4.410021962e-16
-3.1800347e-16
2.227895063e-16
3.613903893e-18
2.406768535e-16
-8.477953444e-17
-3.22146334e-16
1.383497587e-15
9.824689585e-16
8.06477834e-16
6.879103692e-16
3.072356845e-16
2.610539226e-16
-5.723059487e-17
-2.984817474e-16
2.190339169e-16
4.988877766e-17
4.252325521e-17
-1.395247599e-16
-1.142810646e-16
5.207758685e-16
1.292789309e-15
1.173639388e-15
1.265335902e-15
8.268077675e-16
8.08368487e-16
6.277461564e-16
6.555982722e-16
1.813279392e-16
2.524758234e-16
5.019533872e-16
2.156405692e-16
1.730754014e-17
-1.607369932e-16
2.12604379e-16
1.196227107e-16
1.550859206e-15
1.452794156e-15
1.060921299e-15
1.171392674e-15
1.058631422e-15
9.258225649e-16
1.057411121e-15
9.287069906e-16
6.979942688e-16
5.989295934e-16
1.521770107e-16
6.899839037e-16
-9.401270217e-17
1.872111055e-17
-7.904407632e-17
-2.378144998e-16
1.489046479e-15
1.551491729e-15
1.516123838e-15
1.588114646e-15
1.090049624e-15
1.167085184e-15
1.311780576e-15
9.794556196e-16
1.106475134e-15
1.229989013e-15
9.213149863e-16
7.808410967e-16
-1.381717523e-16
-2.346515536e-17
-8.634395787e-17
-1.022049529e-16
-4.888288345e-16
1.974869948e-15
1.886915512e-15
1.399178149e-15
1.161093574e-15
1.486948415e-15
1.324108415e-15
1.189251053e-15
1.375898634e-15
1.06381093e-15
8.914094198e-16
1.139249947e-15
7.356186778e-16
7.278481188e-16
8.381099525e-16
5.999969435e-16
2.038036863e-16
1.148195378e-16
-2.682699818e-18
2.140126911e-15
1.663436617e-15
1.945788076e-15
1.223741366e-15
1.802818426e-15
1.822060431e-15
1.633260563e-15
1.118114432e-15
1.251985967e-15
6.602047236e-16
8.678934578e-16
8.539439153e-16
7.276026545e-16
3.221864279e-16
5.913508829e-16
3.134875854e-16
-1.141320638e-16
6.965133046e-16
2.736851664e-16
1.960214441e-15
2.287933892e-15
2.296903447e-15
1.877621665e-15
1.500704154e-15
1.666859979e-15
1.949881637e-15
1.857605209e-15
1.156761114e-15
1.247918175e-15
1.079225276e-15
7.562497363e-16
1.01270586e-15
1.023856863e-15
8.010826377e-16
2.599812663e-16
9.903238507e-17
1.399705118e-16
5.103326697e-16
4.986267523e-16
2.62656333e-15
1.884195332e-15
2.198902194e-15
2.148351186e-15
2.068756432e-15
2.004385768e-15
1.841678414e-15
1.857569216e-15
2.131273719e-15
1.343959251e-15
8.483992233e-16
4.873044932e-16
4.877796577e-16
4.121786979e-16
2.936129091e-16
1.920094247e-16
2.222514698e-16
-1.447931432e-17
-5.033139047e-17
3.019624451e-16
3.016678824e-16
-3.75431204e-16
2.037693031e-16
-4.538316572e-16
-1.237373893e-16
2.528968949e-16
-6.102120511e-17
1.132530814e-16
2.198630943e-16
-1.273270106e-16
-2.250916866e-16
-1.511322175e-16