/*--------------------------------*- C++ -*----------------------------------*\
| =========                 |                                                 |
| \\      /  F ield         | OpenFOAM: The Open Source CFD Toolbox           |
|  \\    /   O peration     | Version:  2212                                  |
|   \\  /    A nd           | Website:  www.openfoam.com                      |
|    \\/     M anipulation  |                                                 |
\*---------------------------------------------------------------------------*/
FoamFile
{
    version     2.0;
    format      ascii;
    arch        "LSB;label=32;scalar=64";
    class       surfaceScalarField;
    location    "1.2";
    object      phi;
}
// * * * * * * * * * * * * * * * * * * * * * * * * * * * * * * * * * * * * * //

dimensions      [0 3 -1 0 0 0 0];

oriented        oriented;

internalField   nonuniform List<scalar> 
124950
(
0.0025
7.29703533e-20
3.688453091e-19
0.0025
-3.735164359e-19
-1.783595882e-19
0.0025
3.079868221e-19
3.977678282e-19
0.0025
-1.891173809e-19
-2.952875334e-19
0.0025
-1.703121012e-18
-1.208056081e-18
0.0025
-5.475452564e-19
1.365357348e-19
0.0025
-3.106607491e-19
-3.618203022e-19
0.0025
-5.652808939e-19
-1.933683823e-19
0.0025
-1.83479941e-20
7.488397862e-20
0.0025
1.169059546e-19
-4.700379422e-20
0.0025
-2.596303817e-18
-1.952920922e-18
0.0025
-1.581815591e-18
-2.91812652e-19
0.0025
-7.879089421e-19
-1.198753718e-18
0.0025
-8.477573756e-19
-5.030569562e-20
0.0025
-3.226582662e-19
-6.168259378e-20
0.0025
-2.20410843e-19
-8.876437252e-19
0.0025
-9.059987953e-19
4.88588942e-19
0.0025
1.349409115e-20
-3.430041589e-19
0.0025
1.134829784e-20
-2.465492407e-20
0.0025
-1.820215721e-19
-7.744261046e-19
0.0025
-3.389215123e-18
-2.494259091e-18
0.0025
-2.217723289e-18
-3.082687845e-19
0.0025
-1.090016655e-18
-1.806065685e-18
0.0025
-1.644234211e-18
-4.565843958e-19
0.0025
-8.201471257e-19
-4.566783251e-19
0.0025
-7.565897361e-19
-9.493046716e-19
0.0025
-4.988237619e-19
5.670062285e-19
0.0025
-4.355361293e-19
-2.517617956e-19
0.0025
-2.425171662e-19
-2.625426143e-19
0.0025
8.743488386e-20
-4.497628905e-19
0.0025
-1.819190689e-19
1.032960742e-18
0.0025
-2.415184686e-19
1.646011936e-19
0.0025
1.827910417e-19
-2.330989237e-19
0.0025
-2.86692905e-19
-1.830232899e-19
0.0025
7.032911717e-19
-6.264781904e-19
0.0025
-3.163612077e-18
-2.801537495e-18
0.0025
-2.463814087e-18
-6.413661157e-19
0.0025
-1.433841636e-18
-1.716755092e-18
0.0025
-1.758994258e-18
-5.607642918e-19
0.0025
-1.366835408e-18
-8.810622075e-19
0.0025
-1.297707592e-18
-1.47549086e-18
0.0025
-1.17924426e-18
6.743411275e-19
0.0025
-8.16180525e-19
-4.162480874e-19
0.0025
-8.163660861e-19
-5.304234692e-19
0.0025
-1.832025971e-19
-4.190367529e-19
0.0025
-6.232473624e-19
4.949494063e-19
0.0025
-2.238543135e-19
3.967902554e-19
0.0025
-3.542759676e-19
-2.741720356e-19
0.0025
-7.567682317e-20
-3.088870176e-19
0.0025
3.272517173e-19
-3.195253036e-19
0.0025
-9.738452343e-20
5.686511166e-19
0.0025
-4.481081153e-19
2.462437113e-19
0.0025
-3.293059398e-19
-4.589958658e-19
0.0025
6.464154509e-20
2.740643724e-19
0.0025
2.932087402e-19
-6.09939889e-19
0.0025
6.50840989e-19
1.385870601e-19
0.0025
-2.599925823e-18
-2.355359073e-18
0.0025
-2.30223559e-18
-1.565439279e-18
0.0025
-2.01069098e-18
-1.879481957e-18
0.0025
-1.710668868e-18
-8.182613643e-19
0.0025
-1.516970342e-18
-8.321698967e-19
0.0025
-1.614079876e-18
-1.684727012e-18
0.0025
-1.613186175e-18
1.340276845e-19
0.0025
-1.516695356e-18
-1.027801635e-18
0.0025
-1.451197178e-18
-9.511170572e-19
0.0025
-4.020147849e-19
-8.176491535e-19
0.0025
-9.324119578e-19
2.553614176e-19
0.0025
-8.578042365e-19
2.450467567e-19
0.0025
-9.172383624e-19
-3.459369292e-19
0.0025
-6.948023961e-20
-4.685493381e-19
0.0025
-4.481439681e-19
-8.214773086e-19
0.0025
-2.813974538e-19
6.807200676e-19
0.0025
-5.10465753e-19
2.514711053e-19
0.0025
-4.513658777e-19
-7.778543995e-20
0.0025
3.96952204e-20
-2.150826805e-19
0.0025
3.421492492e-20
-4.842159488e-19
0.0025
1.788370447e-20
-2.741180118e-19
0.0025
-4.992720747e-19
4.641956193e-19
0.0025
-2.502791052e-19
1.331197183e-19
0.0025
-4.31761988e-19
-1.274542076e-19
0.0025
1.487450354e-19
2.338028456e-19
0.0025
-1.806933431e-19
-3.995410342e-19
0.0025
4.645410755e-19
-1.736676835e-19
0.0025
2.268798646e-19
-3.569562797e-19
0.0025
-1.667490887e-18
-1.340523568e-18
0.0025
-2.402866246e-18
-1.903384752e-18
0.0025
-2.504035354e-18
-2.097666886e-18
0.0025
-2.285013253e-18
-1.793938408e-18
0.0025
-1.734789777e-18
-1.021616928e-18
0.0025
-1.837123006e-18
-1.185945988e-18
0.0025
-1.557862331e-18
-7.955792518e-20
0.0025
-1.458767573e-18
-1.013893791e-18
0.0025
-1.677421237e-18
-1.176546089e-18
0.0025
-7.30408583e-19
-1.215332781e-18
0.0025
-1.354764624e-18
1.537703641e-20
0.0025
-1.191951424e-18
7.682948928e-20
0.0025
-1.176941233e-18
-6.923812029e-19
0.0025
-4.578729718e-19
-7.368351079e-19
0.0025
-6.721122239e-19
-6.71824836e-19
0.0025
-3.692052244e-19
9.015464785e-19
0.0025
-7.002036482e-19
-5.378291621e-20
0.0025
-9.129406243e-19
1.899704134e-19
0.0025
-1.35421056e-19
-4.917446955e-19
0.0025
-5.168299852e-19
-5.694807742e-19
0.0025
-3.103809264e-19
-7.542347132e-19
0.0025
-5.332965975e-19
7.306490431e-19
0.0025
-3.46512396e-19
3.624592081e-19
0.0025
-5.394595428e-19
-8.193697161e-20
0.0025
-5.365874579e-20
-2.979370212e-19
0.0025
-4.042917714e-19
-2.21705531e-19
0.0025
2.60492113e-19
-2.419971326e-19
0.0025
3.611710189e-20
-6.736230744e-19
0.0025
-5.222703436e-19
5.586644389e-19
0.0025
-3.840054945e-19
1.717029228e-19
0.0025
1.244710631e-19
7.729874277e-20
0.0025
-4.108754312e-19
-3.202155395e-19
0.0025
-5.245708226e-19
1.215874704e-19
0.0025
4.490195212e-19
-1.415305954e-19
0.0025
4.088734639e-19
1.953131335e-19
0.0025
7.222439972e-19
9.544450506e-20
0.0025
-6.05042832e-19
-4.716341602e-19
0.0025
-1.443663709e-18
-1.633391645e-18
0.0025
-2.184218303e-18
-1.289242566e-18
0.0025
-2.015016537e-18
-1.536578578e-18
0.0025
-1.944949828e-18
-1.309273524e-18
0.0025
-1.537594853e-18
-1.026932405e-18
0.0025
-1.478690194e-18
-7.028811788e-19
0.0025
-1.383388876e-18
-7.631005172e-19
0.0025
-1.37613854e-18
-6.198241299e-19
0.0025
-1.246612134e-18
-9.588931038e-19
0.0025
-1.095446444e-18
-2.917536327e-19
0.0025
-1.399269521e-18
-1.201712665e-19
0.0025
-1.19845014e-18
-7.996421626e-19
0.0025
-8.979695885e-19
-8.958662837e-19
0.0025
-7.238780676e-19
-6.336101647e-19
0.0025
-1.062413818e-18
5.491826335e-19
0.0025
-1.189167666e-18
-3.2137447e-19
0.0025
-1.103115239e-18
-8.619251221e-20
0.0025
-2.752303346e-19
-3.799176302e-19
0.0025
-8.756198539e-19
-6.16404748e-19
0.0025
-4.368525111e-19
-9.22751062e-19
0.0025
-8.176493592e-19
4.209451404e-19
0.0025
-5.603471123e-19
3.976106952e-19
0.0025
-5.833220128e-19
-1.342518803e-19
0.0025
-8.839279488e-19
-6.96554364e-19
0.0025
-8.034120405e-19
-5.221577761e-19
0.0025
-9.738438715e-20
-2.038462448e-19
0.0025
-3.228911128e-20
-9.805984976e-19
0.0025
-2.763563159e-19
5.918722959e-19
0.0025
-5.465290659e-19
5.310898376e-20
0.0025
-2.850589265e-19
2.346474162e-19
0.0025
-3.845002902e-19
-3.017303641e-19
0.0025
-3.557529987e-19
-9.510163023e-20
0.0025
3.41097475e-20
-2.007591884e-19
0.0025
7.775398694e-20
-1.98301531e-19
0.0025
2.725468569e-19
-4.311809952e-19
0.0025
2.255196917e-20
1.00092222e-18
0.0025
-9.444327089e-20
2.410834594e-19
0.0025
-4.349238142e-19
-3.325567956e-19
0.0025
-4.333674241e-19
-1.179145742e-19
0.0025
-2.616823605e-19
-2.289972863e-19
0.0025
-5.075218128e-19
-2.151318423e-19
0.0025
1.887020939e-19
-3.547884891e-19
0.0025
1.934594324e-19
4.38456762e-19
0.0025
8.470501686e-19
1.791406504e-19
0.0025
-2.015859751e-19
5.168186479e-21
0.0025
-6.40404043e-19
-1.082620931e-18
0.0025
-1.521548045e-18
-9.540869925e-19
0.0025
-1.502469992e-18
-1.247034519e-18
0.0025
-1.654577525e-18
-1.066810574e-18
0.0025
-1.325777492e-18
-1.09501671e-18
0.0025
-1.595218989e-18
-1.395823191e-18
0.0025
-1.740265796e-18
-8.492587307e-19
0.0025
-1.372746422e-18
-6.360858424e-19
0.0025
-1.566091479e-18
-5.426211332e-19
0.0025
-1.101368508e-18
-9.813387717e-19
0.0025
-1.376173371e-18
-4.106057978e-19
0.0025
-1.503015978e-18
-5.963653846e-19
0.0025
-1.028732587e-18
-6.291112537e-19
0.0025
-1.004606075e-18
-5.195213228e-19
0.0025
-1.381350849e-18
-5.653257409e-19
0.0025
-1.262728248e-18
-2.621215578e-19
0.0025
-1.170113888e-18
-3.578295896e-19
0.0025
-6.660422687e-19
-4.92376027e-19
0.0025
-7.688389992e-19
-5.507274665e-19
0.0025
-5.352433425e-19
-9.231370883e-19
0.0025
-1.017037349e-18
4.866340223e-19
0.0025
-7.276352359e-19
4.834677678e-19
0.0025
-8.359766289e-19
-2.098914082e-19
0.0025
-9.284600514e-19
-5.937360991e-19
0.0025
-7.733437345e-19
-5.205833471e-19
0.0025
-3.133743976e-19
-4.888087772e-19
0.0025
-4.845288771e-19
-1.370627101e-18
0.0025
-4.36433854e-19
7.638448702e-19
0.0025
-5.806252412e-19
1.85936487e-19
0.0025
-5.523352697e-19
3.516280008e-20
0.0025
-6.520410556e-19
-3.237835724e-19
0.0025
-7.393810475e-19
-4.309214786e-19
0.0025
-2.249744948e-19
-2.57831487e-19
0.0025
-2.483730038e-19
-5.715159791e-19
0.0025
3.031556922e-19
-7.563243955e-19
0.0025
2.845303282e-19
8.662709073e-19
0.0025
-2.737065794e-19
5.613063901e-20
0.0025
-4.633241053e-19
-1.870894967e-19
0.0025
-8.303922807e-19
-2.246890959e-19
0.0025
-4.090517643e-19
-4.013809889e-19
0.0025
-3.003775095e-19
-2.237779312e-19
0.0025
-1.516845075e-19
-2.813162683e-19
0.0025
3.781928857e-19
-1.38126662e-20
0.0025
3.540499274e-19
-8.613476891e-20
0.0025
2.32470189e-19
6.897105975e-19
0.0025
2.029295398e-19
3.353788058e-19
0.0025
-2.468091732e-19
-2.632179361e-19
0.0025
-5.549544641e-19
4.92441643e-20
0.0025
9.957528284e-20
8.223708024e-22
0.0025
-4.296470185e-19
-4.146125262e-20
0.0025
-2.726371946e-19
-2.573109532e-19
0.0025
2.813225313e-19
1.689750114e-20
0.0025
-3.195933501e-19
-1.855268205e-19
0.0025
9.318662525e-19
2.716144862e-19
0.0025
5.070175289e-20
-6.013002493e-20
0.0025
-3.55726236e-19
-6.327934797e-19
0.0025
-9.237399551e-19
-8.162236745e-19
0.0025
-1.033888123e-18
-1.300638516e-18
0.0025
-1.269538505e-18
-9.358072875e-19
0.0025
-9.756837555e-19
-1.088656347e-18
0.0025
-1.453025121e-18
-1.670398909e-18
0.0025
-1.788707082e-18
-7.575253738e-19
0.0025
-1.24189971e-18
-8.044213553e-19
0.0025
-1.503996132e-18
-7.77328153e-19
0.0025
-1.339692536e-18
-1.297269053e-18
0.0025
-1.254027274e-18
-8.629687953e-19
0.0025
-1.71297247e-18
-6.237080361e-19
0.0025
-1.162525039e-18
-4.311535882e-19
0.0025
-1.282753406e-18
-3.253396115e-19
0.0025
-1.194332495e-18
-7.127881388e-19
0.0025
-8.546596595e-19
-1.716658523e-19
0.0025
-1.064188992e-18
-1.760596119e-19
0.0025
-1.130007374e-18
-4.57458471e-19
0.0025
-7.660979026e-19
-7.166375819e-19
0.0025
-1.121843556e-18
-9.30384075e-19
0.0025
-7.420773327e-19
1.222132617e-19
0.0025
-8.686004743e-19
-1.080534394e-19
0.0025
-1.258306591e-18
-2.226746706e-19
0.0025
-9.07913278e-19
-4.887999802e-19
0.0025
-6.295828951e-19
-6.583017494e-19
0.0025
-6.791039989e-19
-8.060252311e-19
0.0025
-6.259580595e-19
-1.000203508e-18
0.0025
-6.484310752e-19
9.040908233e-19
0.0025
-7.688398752e-19
3.098260358e-19
0.0025
-7.378873402e-19
1.32713276e-19
0.0025
-7.44936526e-19
-2.311472078e-19
0.0025
-7.489903273e-19
-4.328736145e-19
0.0025
-3.36940486e-19
-8.292599912e-19
0.0025
-5.39529457e-19
-9.108928154e-19
0.0025
-8.759628337e-21
-1.150505209e-18
0.0025
2.085125388e-19
7.968069116e-19
0.0025
-6.877001755e-19
1.648557563e-19
0.0025
-5.270728416e-19
1.109305981e-19
0.0025
-5.330796605e-19
-1.781711538e-19
0.0025
-4.553901936e-19
-1.794566916e-19
0.0025
-3.652269103e-19
-8.131442881e-20
0.0025
-3.606575041e-19
-6.253503276e-19
0.0025
9.402237449e-20
-7.102019146e-19
0.0025
1.925768587e-19
-6.294320798e-19
0.0025
-2.757259516e-19
-3.937789303e-20
0.0025
-2.104298289e-19
1.231409982e-19
0.0025
-4.712624245e-19
-1.644656994e-20
0.0025
-7.082162687e-19
-2.743897542e-19
0.0025
-4.414751446e-19
-2.666461103e-19
0.0025
-3.951762828e-19
1.50826642e-20
0.0025
-1.571182606e-19
-3.798537024e-19
0.0025
-8.290934217e-20
-2.490705512e-19
0.0025
1.41423551e-19
-1.345726298e-19
0.0025
6.070571486e-19
-3.209318103e-19
0.0025
-3.554005384e-19
6.832615039e-19
0.0025
1.141028914e-19
-1.997219203e-19
0.0025
-5.407052715e-19
-2.796648903e-19
0.0025
1.358876556e-20
2.61195004e-19
0.0025
-5.115073563e-19
-3.384550862e-19
0.0025
-1.149611812e-19
3.122198205e-19
0.0025
-2.422272814e-20
-2.553534378e-19
0.0025
-2.974276443e-19
-5.536501335e-19
0.0025
-1.530167742e-19
2.948173151e-19
0.0025
6.681637229e-20
-2.582738269e-19
0.0025
6.38767473e-20
-5.13624862e-19
0.0025
1.589072089e-19
-2.379612564e-19
0.0025
-5.44881403e-19
-6.192619117e-19
0.0025
-4.348270651e-19
-2.407759654e-19
0.0025
-6.113755904e-19
-8.181618268e-19
0.0025
-6.525503473e-19
-6.184849719e-19
0.0025
-4.717459138e-19
-8.514851667e-19
0.0025
-1.455189196e-18
-1.343297925e-18
0.0025
-1.170385671e-18
-9.475835043e-19
0.0025
-1.035565046e-18
-7.760554476e-19
0.0025
-1.001527054e-18
-7.024814879e-19
0.0025
-1.652039584e-18
-1.40238124e-18
0.0025
-1.170051864e-18
-1.065907013e-18
0.0025
-1.68560826e-18
-7.538299284e-19
0.0025
-1.196977853e-18
-6.954394314e-19
0.0025
-1.218041551e-18
-6.075097314e-19
0.0025
-1.069907799e-18
-7.144274815e-19
0.0025
-6.58399573e-19
-2.300621372e-19
0.0025
-9.796279075e-19
-1.027093803e-19
0.0025
-1.331834795e-18
-6.936133664e-19
0.0025
-1.054553638e-18
-7.816285629e-19
0.0025
-1.901792791e-18
-1.14516034e-18
0.0025
-7.746058285e-19
-4.933645249e-19
0.0025
-1.021829838e-18
-5.510261994e-19
0.0025
-1.204362862e-18
-2.815194218e-20
0.0025
-8.808542454e-19
-5.991406291e-20
0.0025
-6.81761648e-19
-8.232941257e-19
0.0025
-1.11574636e-18
-9.610160456e-19
0.0025
-1.261757676e-18
-1.348666614e-18
0.0025
-1.429029291e-18
-2.452171416e-19
0.0025
-7.4995205e-19
5.715425254e-20
0.0025
-9.22709095e-19
9.39353824e-20
0.0025
-1.043276915e-18
1.000773379e-19
0.0025
-3.917102385e-19
-5.570276296e-19
0.0025
-4.745421673e-19
-9.266120001e-19
0.0025
-6.265714917e-19
-9.316244297e-19
0.0025
-5.826067961e-19
-1.551180444e-18
0.0025
-4.155821191e-19
5.027599971e-19
0.0025
-9.743198664e-19
4.538179281e-19
0.0025
-7.15512674e-19
2.1472356e-19
0.0025
-5.740697629e-19
-2.441697134e-19
0.0025
-5.912520427e-19
-1.313573885e-19
0.0025
-5.833129361e-19
-2.03734204e-19
0.0025
-2.791052528e-19
-1.09397201e-18
0.0025
-3.857933123e-19
-1.086401962e-18
0.0025
2.626517688e-20
-9.305726128e-19
0.0025
-2.148885696e-19
2.001837062e-19
0.0025
-3.472063458e-19
3.59005831e-19
0.0025
-5.417845246e-19
9.874762159e-20
0.0025
-5.762495195e-19
-4.713222267e-19
0.0025
-6.134478827e-19
-2.087386613e-19
0.0025
-5.308082832e-19
-8.307273358e-20
0.0025
-3.784766634e-19
-4.534378011e-19
0.0025
-1.385605124e-19
-6.638183929e-19
0.0025
2.049508028e-21
-5.560933942e-19
0.0025
3.347437063e-19
-6.50952093e-19
0.0025
-7.820562751e-19
4.075979839e-19
0.0025
8.978904076e-20
1.78710601e-19
0.0025
-9.232408457e-20
5.671835692e-20
0.0025
-2.449065639e-19
6.574641964e-20
0.0025
-3.93121213e-19
-2.135018215e-19
0.0025
-4.721213319e-19
-4.013476195e-21
0.0025
-3.365776915e-19
-3.136809826e-19
0.0025
-1.9268014e-20
-3.166257557e-19
0.0025
-2.116390802e-19
2.498591049e-20
0.0025
3.568956897e-19
-3.940170721e-19
0.0025
1.879194398e-19
-5.624027322e-19
0.0025
-4.573737192e-19
4.648260737e-19
0.0025
-2.95022689e-19
-9.565994033e-20
0.0025
-2.882211126e-19
1.567240426e-19
0.0025
1.186742091e-19
5.165531917e-20
0.0025
-7.002557054e-20
2.955730622e-19
0.0025
2.52813668e-19
5.898743536e-20
0.0025
-2.77510401e-19
-4.119679884e-19
0.0025
-1.726609119e-19
-3.388484595e-19
0.0025
-3.07421004e-19
-2.779769685e-19
0.0025
-5.466529115e-19
-3.338332081e-19
0.0025
-1.699519271e-19
-1.806830422e-22
0.0025
7.685856897e-19
-2.82087928e-19
0.0025
-2.908881601e-19
-1.106723462e-18
0.0025
-6.737612718e-19
-9.241563812e-19
0.0025
-4.274329872e-19
-4.070751097e-19
0.0025
-4.681439201e-19
-2.993748917e-19
0.0025
-5.119636938e-19
-5.26303598e-19
0.0025
-3.057403085e-19
-5.228782111e-19
0.0025
-9.753961627e-19
-7.763376811e-19
0.0025
-7.620589489e-19
-7.835616372e-19
0.0025
-6.069066579e-19
-7.507447078e-19
0.0025
-6.576327161e-19
-5.078791386e-19
0.0025
-1.481392445e-18
-1.08607853e-18
0.0025
-1.260544389e-18
-9.534450889e-19
0.0025
-9.891810506e-19
-6.593222822e-19
0.0025
-9.674426086e-19
-7.281291231e-19
0.0025
-7.206588888e-19
-2.754352122e-19
0.0025
-1.220974054e-18
-7.718164031e-19
0.0025
-9.068808174e-19
-6.046537952e-19
0.0025
-1.121018332e-18
-3.326719006e-19
0.0025
-1.321703532e-18
-5.52724448e-19
0.0025
-7.417739276e-19
-6.20863322e-19
0.0025
-1.362054741e-18
-5.111695624e-19
0.0025
-1.34654504e-18
-8.938569386e-19
0.0025
-1.118591738e-18
-5.373453163e-19
0.0025
-9.11867091e-19
-1.334346496e-19
0.0025
-1.008217676e-18
-3.31443339e-20
0.0025
-9.836497716e-19
-5.596631013e-19
0.0025
-1.276141752e-18
-8.859150982e-19
0.0025
-1.53489682e-18
-1.553192818e-18
0.0025
-2.154553656e-18
-1.110944888e-18
0.0025
-7.716021009e-19
-3.083755607e-19
0.0025
-9.910909078e-19
-3.335611766e-19
0.0025
-1.343544238e-18
5.605814305e-20
0.0025
-6.63897525e-19
-8.458717603e-19
0.0025
-9.893015276e-19
-1.097231058e-18
0.0025
-1.034462237e-18
-7.406737277e-19
0.0025
-7.520347828e-19
-1.757801243e-18
0.0025
-1.2250489e-18
3.227170575e-19
0.0025
-8.403365751e-19
-2.275530356e-19
0.0025
-9.275448907e-19
-1.34186377e-19
0.0025
-8.663958674e-19
1.129519667e-20
0.0025
-1.034857692e-18
-5.555913763e-19
0.0025
-6.01655591e-19
-6.676707852e-19
0.0025
-4.009153146e-19
-1.053893374e-18
0.0025
-6.877509891e-19
-1.177954978e-18
0.0025
-3.778463382e-19
-1.280082047e-18
0.0025
-1.424243225e-19
6.227908837e-19
0.0025
-5.21962999e-19
4.587844827e-19
0.0025
-1.056495547e-18
-2.244341374e-19
0.0025
-9.110091521e-19
-4.240075476e-19
0.0025
-7.502506681e-19
-3.627134602e-19
0.0025
-9.631711331e-19
-6.659272156e-19
0.0025
-7.780374412e-19
-8.985851653e-19
0.0025
-2.226796644e-19
-9.000100974e-19
0.0025
-2.774068852e-19
-8.795703227e-19
0.0025
7.607614187e-20
-6.730533744e-19
0.0025
-8.151626258e-19
3.271383778e-19
0.0025
-3.629058289e-20
1.517016283e-19
0.0025
-2.82526588e-19
2.381687886e-19
0.0025
-4.763883485e-19
-4.407802428e-19
0.0025
-5.538252337e-19
-1.161558476e-19
0.0025
-4.943001951e-19
-7.406411458e-20
0.0025
-5.401077134e-19
-4.827447855e-19
0.0025
-4.557402797e-19
-5.640637573e-19
0.0025
-6.496162447e-20
-4.437893087e-19
0.0025
4.256110748e-20
-4.222741657e-19
0.0025
5.147776925e-19
-3.932435022e-19
0.0025
-4.849160231e-20
7.901165056e-19
0.0025
-3.278417811e-19
3.260382677e-19
0.0025
-2.363435e-19
1.654734643e-19
0.0025
1.391639788e-19
4.705581573e-20
0.0025
2.439427995e-20
-1.190465693e-19
0.0025
-2.295870653e-19
2.19987385e-19
0.0025
-2.243642492e-19
-1.987830493e-19
0.0025
-2.420337715e-19
-1.772889506e-19
0.0025
-7.841136505e-20
-2.137729365e-19
0.0025
-2.708409768e-19
-3.322273154e-19
0.0025
1.880457813e-19
-3.015269875e-19
0.0025
7.535077237e-19
-1.562681413e-19
0.0025
2.780975249e-19
1.440049359e-18
0.0025
-1.891979891e-19
-3.604621786e-19
0.0025
-8.884018225e-20
4.684271004e-19
0.0025
3.552832727e-19
5.346008284e-19
0.0025
4.097434252e-19
-4.447784143e-20
0.0025
-3.227010487e-19
-2.413407911e-19
0.0025
-4.447511241e-19
1.206733672e-19
0.0025
-3.781483302e-20
-5.453964141e-19
0.0025
-1.648704305e-20
-6.203922582e-20
0.0025
-3.593337407e-19
-7.539408588e-20
0.0025
-1.649557999e-19
-9.741479548e-20
0.0025
-1.081277481e-19
-1.00882876e-20
0.0025
1.254311146e-18
2.654653162e-19
0.0025
-7.430996623e-19
-1.951021585e-18
0.0025
-9.030659605e-19
-1.285791102e-18
0.0025
-2.601791393e-19
-9.196602024e-19
0.0025
-7.6053813e-19
-5.864765744e-19
0.0025
-7.404111855e-19
-9.338237834e-19
0.0025
-4.709363827e-19
-6.591120742e-19
0.0025
-6.113011083e-19
-5.358907067e-19
0.0025
-6.858160219e-19
-5.518554845e-19
0.0025
-7.102064687e-19
-8.839628298e-19
0.0025
-6.669530461e-19
-8.719155818e-19
0.0025
-9.51167535e-19
-8.391901838e-19
0.0025
-1.216492299e-18
-7.612170956e-19
0.0025
-6.723796881e-19
-6.966036376e-19
0.0025
-6.077090225e-19
-6.004114788e-19
0.0025
-4.092719842e-19
1.847120274e-20
0.0025
-1.099935078e-18
-5.655882496e-19
0.0025
-9.366283691e-19
-5.728740751e-19
0.0025
-8.6985372e-19
-7.358254214e-19
0.0025
-1.037539927e-18
-3.715034078e-19
0.0025
-6.515077368e-19
-5.369621481e-19
0.0025
-1.068870273e-18
-3.643657725e-19
0.0025
-1.449459888e-18
-3.816721541e-19
0.0025
-5.510278879e-19
-6.177880783e-19
0.0025
-9.075481627e-19
-9.261423884e-20
0.0025
-8.761843575e-19
-1.925933235e-19
0.0025
-1.090614176e-18
-3.415572005e-19
0.0025
-9.06787904e-19
-6.443748167e-19
0.0025
-1.287694772e-18
-1.16856301e-18
0.0025
-2.039916535e-18
-9.840907202e-19
0.0025
-9.803797496e-19
-3.827548236e-19
0.0025
-1.072214409e-18
-3.991988823e-19
0.0025
-9.105186613e-19
-4.040934746e-19
0.0025
-1.11746639e-18
-7.372575047e-19
0.0025
-1.281380598e-18
-6.649498177e-19
0.0025
-1.058794603e-18
-1.030765414e-18
0.0025
-1.018578468e-18
-1.706914967e-18
0.0025
-1.487684662e-18
3.534949067e-19
0.0025
-9.514358631e-19
-6.244783648e-19
0.0025
-8.021255454e-19
-2.395950623e-19
0.0025
-8.750021389e-19
1.727155626e-19
0.0025
-1.268389445e-18
-8.660032884e-19
0.0025
-7.312306374e-19
-8.383750685e-19
0.0025
-7.665199031e-19
-9.442646299e-19
0.0025
-1.276275429e-18
-1.545135686e-18
0.0025
-6.119685258e-19
-1.589105929e-18
0.0025
-8.829872766e-19
4.91502968e-19
0.0025
-1.077752922e-18
-2.773589067e-20
0.0025
-8.752803019e-19
-2.949317003e-19
0.0025
-8.976383779e-19
-2.773713909e-19
0.0025
-1.262286949e-18
-4.722602716e-19
0.0025
-1.216979516e-18
-1.035856979e-18
0.0025
-5.403961025e-19
-1.072030672e-18
0.0025
-5.551411315e-19
-1.248558348e-18
0.0025
-6.166448978e-19
-1.057304937e-18
0.0025
-4.174163002e-19
-1.09429612e-18
0.0025
-5.339875494e-19
1.33284118e-19
0.0025
-3.825786955e-19
5.52614028e-19
0.0025
-8.788372419e-19
1.689381218e-19
0.0025
-6.106052156e-19
-6.909120154e-19
0.0025
-1.167653951e-18
-4.527744794e-19
0.0025
-7.654409651e-19
-5.089341206e-19
0.0025
-8.284831522e-19
-8.096115798e-19
0.0025
-7.635461915e-19
-8.990926927e-19
0.0025
1.006045356e-20
-5.487513549e-19
0.0025
-1.791799147e-19
-6.412719257e-19
0.0025
2.592065126e-19
-4.525532186e-19
0.0025
7.427676442e-20
9.788363949e-19
0.0025
-4.484495768e-19
-2.164365998e-19
0.0025
-4.127150832e-19
1.34631595e-19
0.0025
-3.777891457e-19
-2.275643959e-19
0.0025
-2.756827284e-19
-2.114464662e-19
0.0025
-6.142518066e-19
-1.797830239e-19
0.0025
-5.838010191e-19
-4.293295926e-19
0.0025
-4.808161492e-19
-1.554709268e-19
0.0025
-8.047996758e-20
-3.858791432e-19
0.0025
1.6874035e-19
-1.607965509e-19
0.0025
2.267342722e-19
-3.754857495e-19
0.0025
5.621994822e-19
-2.738272187e-19
0.0025
3.908306363e-19
8.821316277e-19
0.0025
-4.113992923e-19
3.81244047e-19
0.0025
-1.543797957e-19
1.74391958e-19
0.0025
2.686724901e-19
2.901186022e-19
0.0025
1.680214258e-19
-5.80746762e-20
0.0025
4.03215834e-20
7.616303602e-20
0.0025
-6.542924713e-19
4.078248444e-20
0.0025
-9.590076084e-20
-4.015874195e-19
0.0025
-3.08367997e-19
1.555205519e-20
0.0025
-1.349199168e-19
-1.165280548e-19
0.0025
-1.963786457e-20
-1.015113378e-19
0.0025
6.375884117e-19
-1.131918722e-19
0.0025
6.890377079e-19
3.447219524e-19
0.0025
4.772548402e-19
8.50235947e-19
0.0025
-4.749135835e-19
5.524706453e-19
0.0025
8.776629713e-19
9.202143011e-20
0.0025
-4.125460752e-19
2.124749391e-19
0.0025
-7.523872254e-20
-5.489167354e-19
0.0025
-3.324876042e-19
-3.283925707e-19
0.0025
-4.419451187e-19
-7.436413232e-20
0.0025
-3.406454315e-19
5.953254173e-20
0.0025
2.207884351e-19
-2.884540414e-19
0.0025
-4.820621952e-20
9.850733382e-20
0.0025
-1.916665e-19
1.733907371e-19
0.0025
-4.498420429e-20
3.649985298e-19
0.0025
5.211857266e-19
-3.731898093e-19
0.0025
5.534113026e-19
5.060510555e-19
0.0025
-1.07046108e-18
-2.272239767e-18
0.0025
-1.552409048e-18
-2.082936426e-18
0.0025
-4.648996964e-19
-1.642624458e-18
0.0025
-1.182611052e-18
-9.665160968e-19
0.0025
-8.296702216e-19
-1.454434039e-18
0.0025
-5.322940355e-19
-9.824344991e-19
0.0025
-7.304656419e-19
-5.173759073e-19
0.0025
-7.66179239e-19
-5.817052e-19
0.0025
-5.976481515e-19
-8.635924295e-19
0.0025
-5.486026214e-19
-9.596671634e-19
0.0025
-7.290564951e-19
-4.967454147e-19
0.0025
-6.914143852e-19
-5.375864804e-19
0.0025
-4.464833086e-19
-5.453150806e-19
0.0025
-6.722294221e-19
-7.768530098e-19
0.0025
-3.60993497e-19
-2.18546392e-19
0.0025
-6.833569352e-19
-4.653570968e-19
0.0025
-8.012676892e-19
-5.600255162e-19
0.0025
-7.864898888e-19
-7.527222546e-19
0.0025
-7.888349078e-19
-4.45265478e-19
0.0025
-4.64886023e-19
-4.23370866e-19
0.0025
-8.306475322e-19
-2.571258426e-19
0.0025
-1.105389026e-18
-2.369810999e-19
0.0025
-6.729990825e-19
-4.792562466e-19
0.0025
-7.936459141e-19
-4.369784169e-19
0.0025
-7.277104498e-19
-3.308568742e-19
0.0025
-8.074794559e-19
-3.193306083e-19
0.0025
-6.260570542e-19
-4.954788416e-19
0.0025
-1.22282504e-18
-9.243403067e-19
0.0025
-1.651260929e-18
-2.923970613e-19
0.0025
-1.014711041e-18
-4.323958303e-19
0.0025
-5.95487031e-19
-4.618640493e-19
0.0025
-1.073118689e-18
-3.573084798e-19
0.0025
-9.951217515e-19
-7.189342766e-19
0.0025
-1.39537514e-18
-8.446354133e-19
0.0025
-1.076519106e-18
-9.014616252e-19
0.0025
-1.210535923e-18
-1.70795296e-18
0.0025
-1.486400847e-18
2.965812953e-19
0.0025
-9.633780613e-19
-4.488946405e-19
0.0025
-6.973238027e-19
-2.100046637e-19
0.0025
-1.10389748e-18
-4.147708657e-19
0.0025
-1.133369805e-18
-6.879432661e-19
0.0025
-9.435525175e-19
-9.178269464e-19
0.0025
-1.320454913e-18
-9.099418854e-19
0.0025
-8.154554059e-19
-1.221914563e-18
0.0025
-8.175315152e-19
-1.624504595e-18
0.0025
-1.842072342e-18
1.485960279e-19
0.0025
-1.036717245e-18
-9.025610591e-20
0.0025
-1.054436335e-18
-3.949498801e-19
0.0025
-9.823584593e-19
-2.346583975e-19
0.0025
-1.333858854e-18
-6.212911505e-19
0.0025
-1.127296216e-18
-1.189847395e-18
0.0025
-9.095017913e-19
-1.089211643e-18
0.0025
-1.097755952e-18
-1.245328184e-18
0.0025
-7.105434322e-19
-1.243233811e-18
0.0025
-7.12125362e-19
-1.430082923e-18
0.0025
-6.777657846e-19
3.404731767e-20
0.0025
-1.108966686e-18
5.281320042e-19
0.0025
-1.065625098e-18
-2.926541304e-19
0.0025
-6.366179448e-19
-1.39582481e-19
0.0025
-1.042103014e-18
-6.167405264e-19
0.0025
-1.06107824e-18
-6.748370255e-19
0.0025
-9.20968384e-19
-7.450370488e-19
0.0025
-4.699263752e-19
-9.814635503e-19
0.0025
-8.495882044e-20
-9.691440985e-19
0.0025
-5.058183575e-19
-8.136722055e-19
0.0025
3.946390164e-20
-5.186577755e-19
0.0025
-2.344907358e-19
5.475114791e-19
0.0025
-6.924145734e-19
-4.161518219e-19
0.0025
-8.065511972e-19
4.030637314e-19
0.0025
-4.699942867e-19
-4.783995566e-19
0.0025
-8.480624062e-19
-1.848812458e-19
0.0025
-8.519851914e-19
-6.74603126e-19
0.0025
-8.723515897e-19
-5.549847726e-19
0.0025
-6.477384812e-19
-3.364756635e-19
0.0025
-1.117500577e-19
-6.328347817e-19
0.0025
4.244620912e-20
-3.980268267e-19
0.0025
6.418128835e-20
-1.912352975e-19
0.0025
3.576669612e-19
-2.486679871e-19
0.0025
-2.953755151e-19
3.896583268e-19
0.0025
-3.190186936e-19
4.871546741e-19
0.0025
1.917181113e-20
1.04217526e-19
0.0025
-2.324304881e-19
-1.367071674e-19
0.0025
-3.575400613e-19
-7.323526644e-21
0.0025
-1.179280332e-19
1.758571004e-19
0.0025
-3.732331135e-19
-2.554239248e-19
0.0025
-3.246087955e-19
-2.040149115e-19
0.0025
-4.450946716e-19
-2.170882252e-19
0.0025
-4.04721537e-20
-2.415442703e-19
0.0025
3.794090411e-20
-2.403358875e-19
0.0025
4.320269567e-19
-3.082942328e-19
0.0025
3.878500542e-19
1.651846507e-19
0.0025
3.25424748e-19
5.263506723e-19
0.0025
-2.937498793e-19
4.776150417e-19
0.0025
2.618398299e-19
1.643271103e-19
0.0025
-3.512816292e-19
-1.665338219e-19
0.0025
-5.008706318e-19
-2.28991915e-19
0.0025
1.708039131e-20
-2.016500164e-19
0.0025
-3.44294092e-19
1.78098748e-20
0.0025
-4.450803195e-19
-3.789165811e-19
0.0025
-2.560459516e-19
-6.498061591e-20
0.0025
-1.564376752e-19
5.085871202e-20
0.0025
6.772109141e-20
1.073859112e-19
0.0025
1.278134729e-19
-9.455655762e-20
0.0025
7.494789162e-19
7.949955164e-20
0.0025
4.933587965e-19
4.047906019e-19
0.0025
-3.195316269e-20
3.49613829e-19
0.0025
-1.46295702e-19
9.710362306e-19
0.0025
3.241039701e-19
-1.062151841e-19
0.0025
2.860236529e-19
-1.004003946e-19
0.0025
-7.098604448e-19
-4.078725053e-19
0.0025
7.617347878e-20
-7.380265478e-20
0.0025
1.043884529e-19
-6.317892664e-20
0.0025
-4.047572738e-19
-3.136857467e-19
0.0025
-4.737523193e-19
1.064669587e-19
0.0025
5.01645037e-19
1.64715127e-19
0.0025
-1.460369591e-19
4.774387028e-19
0.0025
1.36248295e-19
4.639250551e-19
0.0025
2.241187031e-19
-3.919580188e-19
0.0025
-4.314184609e-20
-2.050639276e-19
0.0025
1.885836964e-19
5.928866983e-19
0.0025
-1.716822788e-18
-2.133883434e-18
0.0025
-1.594469199e-18
-2.319415368e-18
0.0025
-6.781896002e-19
-2.190472826e-18
0.0025
-1.514628449e-18
-1.613309465e-18
0.0025
-9.861878948e-19
-2.116395396e-18
0.0025
-1.102005798e-18
-1.425571622e-18
0.0025
-1.099733838e-18
-8.144430718e-19
0.0025
-1.050958818e-18
-1.11116116e-18
0.0025
-7.600416807e-19
-1.299927354e-18
0.0025
-5.331602017e-19
-1.010899755e-18
0.0025
-7.192817838e-19
-4.691140235e-19
0.0025
-6.462339002e-19
-6.75262158e-19
0.0025
-4.906747936e-19
-6.040406568e-19
0.0025
-7.876372443e-19
-9.850754697e-19
0.0025
-4.341644032e-19
-6.262232665e-19
0.0025
-5.869301546e-19
-2.714027273e-19
0.0025
-6.143394585e-19
-5.442714198e-19
0.0025
-6.461992378e-19
-7.35745059e-19
0.0025
-7.693524269e-19
-8.293189061e-19
0.0025
-4.347262954e-19
-4.381414973e-19
0.0025
-6.768129818e-19
-1.872624505e-19
0.0025
-5.313052598e-19
-5.125355134e-19
0.0025
-8.818988665e-19
-5.298273351e-19
0.0025
-6.401338742e-19
-4.407039904e-19
0.0025
-7.957456889e-19
-5.473534141e-19
0.0025
-5.085889422e-19
-4.423806971e-19
0.0025
-8.13102908e-19
-7.860063506e-19
0.0025
-9.962444881e-19
-3.585162007e-19
0.0025
-1.245578318e-18
-4.858942484e-19
0.0025
-9.248096384e-19
-4.198424233e-19
0.0025
-8.971582376e-19
-2.796938889e-19
0.0025
-7.216717612e-19
-2.044844506e-19
0.0025
-6.298636586e-19
-3.944739082e-19
0.0025
-7.580527828e-19
-7.558214225e-19
0.0025
-9.159776406e-19
-7.065963122e-19
0.0025
-1.113174902e-18
-1.176492152e-18
0.0025
-1.557333381e-18
1.630585285e-19
0.0025
-1.190598128e-18
-6.910660813e-19
0.0025
-9.277710591e-19
-4.111820448e-19
0.0025
-1.020515494e-18