/*--------------------------------*- C++ -*----------------------------------*\
| =========                 |                                                 |
| \\      /  F ield         | OpenFOAM: The Open Source CFD Toolbox           |
|  \\    /   O peration     | Version:  2212                                  |
|   \\  /    A nd           | Website:  www.openfoam.com                      |
|    \\/     M anipulation  |                                                 |
\*---------------------------------------------------------------------------*/
FoamFile
{
    version     2.0;
    format      ascii;
    arch        "LSB;label=32;scalar=64";
    class       surfaceScalarField;
    location    "1.2";
    object      phiHbyA;
}
// * * * * * * * * * * * * * * * * * * * * * * * * * * * * * * * * * * * * * //

dimensions      [0 3 -1 0 0 0 0];

oriented        oriented;

internalField   nonuniform List<scalar> 
124950
(
0.0025
3.031634451e-19
2.413477777e-19
0.0025
-1.466329611e-19
2.575441068e-21
0.0025
2.975528304e-19
3.114021709e-19
0.0025
8.029161454e-20
-3.014590802e-20
0.0025
-1.566014401e-18
-9.44431165e-19
0.0025
-2.11131511e-19
2.289225514e-19
0.0025
-1.725724523e-19
-3.831587635e-19
0.0025
-4.009661337e-19
-1.737106744e-19
0.0025
7.701316586e-20
9.042527325e-20
0.0025
1.374645628e-19
-1.542687985e-19
0.0025
-2.570476293e-18
-1.783855686e-18
0.0025
-1.526771705e-18
-1.194552726e-19
0.0025
-7.413911212e-19
-1.058173537e-18
0.0025
-7.141676696e-19
-5.901279047e-20
0.0025
-8.887005093e-20
-1.150153859e-19
0.0025
-1.145177795e-19
-5.870072909e-19
0.0025
-7.60999463e-19
3.001660985e-19
0.0025
-3.059220485e-20
-3.935751098e-19
0.0025
4.059721223e-20
-2.117098867e-20
0.0025
-5.099117962e-20
-4.709052476e-19
0.0025
-3.004998909e-18
-2.199436555e-18
0.0025
-2.171291593e-18
-2.529342271e-19
0.0025
-1.177152728e-18
-1.733326667e-18
0.0025
-1.355791347e-18
-2.759731836e-19
0.0025
-7.571660513e-19
-4.437391107e-19
0.0025
-8.373020021e-19
-9.521391002e-19
0.0025
-8.29562067e-19
6.276301657e-19
0.0025
-2.33517798e-19
-4.137505687e-19
0.0025
-1.173849319e-19
-2.200456645e-19
0.0025
-6.389126529e-20
-5.761576936e-19
0.0025
-2.583540051e-19
6.545298649e-19
0.0025
-2.867928919e-19
-4.430768798e-20
0.0025
-1.963318496e-20
-1.508283174e-19
0.0025
-1.786573197e-19
-1.988015395e-19
0.0025
5.157908088e-19
-4.642826344e-19
0.0025
-3.013849153e-18
-2.485008344e-18
0.0025
-2.413813851e-18
-6.010359611e-19
0.0025
-1.304595732e-18
-1.665554397e-18
0.0025
-1.674037469e-18
-5.905638526e-19
0.0025
-1.405557862e-18
-7.247770305e-19
0.0025
-1.300683663e-18
-1.362000285e-18
0.0025
-1.046244247e-18
6.118581881e-19
0.0025
-7.717230223e-19
-4.584936083e-19
0.0025
-8.085697469e-19
-4.899285345e-19
0.0025
-2.204841683e-19
-6.546423771e-19
0.0025
-4.478685285e-19
6.613900638e-19
0.0025
-4.472873939e-19
1.85629642e-19
0.0025
-2.014294765e-19
-2.95005142e-19
0.0025
-1.387464513e-20
-2.0495901e-19
0.0025
4.061896651e-19
-3.583080094e-19
0.0025
-2.14664506e-20
4.322494589e-19
0.0025
-2.82753713e-19
2.466227432e-19
0.0025
-1.652924495e-19
-1.875410872e-19
0.0025
5.140149079e-20
4.836931377e-20
0.0025
1.913275165e-19
-4.393825306e-19
0.0025
4.725936778e-19
-8.216054825e-20
0.0025
-2.574219615e-18
-2.201299233e-18
0.0025
-2.472610626e-18
-1.346434231e-18
0.0025
-1.957561994e-18
-1.788562295e-18
0.0025
-1.722811744e-18
-8.679733494e-19
0.0025
-1.557038153e-18
-9.355293953e-19
0.0025
-1.639534698e-18
-1.378926402e-18
0.0025
-1.434412313e-18
2.651066168e-19
0.0025
-1.271744592e-18
-8.254003263e-19
0.0025
-1.4438035e-18
-9.002399334e-19
0.0025
-4.671646397e-19
-8.250568746e-19
0.0025
-8.263872407e-19
2.092441356e-19
0.0025
-7.091940645e-19
3.107678106e-19
0.0025
-7.648142849e-19
-3.728373884e-19
0.0025
-1.290792944e-19
-4.52572065e-19
0.0025
-2.344299588e-19
-5.710954935e-19
0.0025
-2.202274863e-19
7.660475694e-19
0.0025
-4.169221855e-19
2.282666328e-19
0.0025
-4.868428172e-19
-1.703693965e-19
0.0025
1.207908613e-19
-1.129686153e-19
0.0025
9.420316053e-20
-4.003405005e-19
0.0025
2.196018744e-19
-2.700459926e-19
0.0025
-3.231186235e-19
3.950324333e-19
0.0025
-1.077082029e-19
2.477742208e-19
0.0025
-1.52132115e-19
-6.341077707e-20
0.0025
1.053471776e-19
1.202011898e-20
0.0025
-1.900210655e-19
-1.741355495e-19
0.0025
4.175079781e-19
-2.086783495e-19
0.0025
2.336858481e-19
-7.006887136e-20
0.0025
-1.691221088e-18
-1.244922572e-18
0.0025
-2.311335278e-18
-1.698296307e-18
0.0025
-2.426616453e-18
-1.880591649e-18
0.0025
-1.953320639e-18
-1.395594521e-18
0.0025
-1.72539761e-18
-8.867969725e-19
0.0025
-1.739490939e-18
-1.23763155e-18
0.0025
-1.349063776e-18
3.421435803e-20
0.0025
-1.307798449e-18
-9.143929834e-19
0.0025
-1.514628743e-18
-9.426190603e-19
0.0025
-8.262947293e-19
-9.934061914e-19
0.0025
-1.270685875e-18
3.460804466e-20
0.0025
-1.125680819e-18
1.117165737e-19
0.0025
-1.099504695e-18
-5.750666984e-19
0.0025
-3.840419132e-19
-6.969329752e-19
0.0025
-6.898648775e-19
-6.56149259e-19
0.0025
-5.240657944e-19
8.481118835e-19
0.0025
-6.020438883e-19
-3.091978805e-20
0.0025
-8.071883781e-19
-4.276953975e-20
0.0025
-1.888364723e-19
-3.909535931e-19
0.0025
-4.916152108e-19
-4.354286799e-19
0.0025
-2.119662764e-19
-7.169069331e-19
0.0025
-4.217007492e-19
7.562765684e-19
0.0025
-3.45209861e-19
4.173997416e-19
0.0025
-3.677709694e-19
-7.057295581e-20
0.0025
1.481228706e-20
-1.538696717e-19
0.0025
-2.812428462e-19
-2.126882423e-19
0.0025
2.456221889e-19
-3.11605102e-19
0.0025
1.639786297e-19
-5.841166346e-19
0.0025
-1.976741966e-19
5.066360627e-19
0.0025
-1.917041566e-19
-1.093877712e-20
0.0025
-3.0254237e-20
4.739401839e-20
0.0025
-2.251937132e-19
-2.530868819e-19
0.0025
-2.790572962e-19
5.654678629e-20
0.0025
1.492456301e-19
-2.037470809e-19
0.0025
3.34634547e-19
2.013070945e-19
0.0025
4.489389227e-19
6.744224723e-20
0.0025
-8.252881918e-19
-5.749436989e-19
0.0025
-1.653295998e-18
-1.493878786e-18
0.0025
-2.16340156e-18
-1.477429959e-18
0.0025
-2.016349148e-18
-1.485937076e-18
0.0025
-2.00794076e-18
-1.082865544e-18
0.0025
-1.449661331e-18
-1.08982179e-18
0.0025
-1.391975427e-18
-5.714953691e-19
0.0025
-1.31970764e-18
-8.07226998e-19
0.0025
-1.545692809e-18
-6.105855396e-19
0.0025
-1.088168767e-18
-7.109208165e-19
0.0025
-1.267896038e-18
-2.204354119e-19
0.0025
-1.233924858e-18
-2.032864713e-20
0.0025
-1.047139204e-18
-6.436255269e-19
0.0025
-8.130874869e-19
-6.592468894e-19
0.0025
-8.038455439e-19
-6.359755429e-19
0.0025
-8.875341156e-19
6.876837566e-19
0.0025
-9.865872212e-19
-1.899040632e-19
0.0025
-9.40261312e-19
-8.617432747e-20
0.0025
-3.150901157e-19
-3.326694882e-19
0.0025
-7.944427861e-19
-5.116824164e-19
0.0025
-3.652353898e-19
-9.13368732e-19
0.0025
-5.677697028e-19
5.878321101e-19
0.0025
-4.946485381e-19
3.737768073e-19
0.0025
-5.318592689e-19
-1.020887774e-19
0.0025
-5.132726466e-19
-4.407463671e-19
0.0025
-7.018105623e-19
-4.387705065e-19
0.0025
-1.228344375e-19
-2.404729771e-19
0.0025
-7.827625431e-21
-9.217944362e-19
0.0025
-1.605161811e-19
6.401263225e-19
0.0025
-4.129657155e-19
1.978355439e-19
0.0025
-1.939703648e-19
7.068237203e-20
0.0025
-3.881407767e-19
-3.240806265e-19
0.0025
-4.536995776e-19
-1.58237061e-19
0.0025
8.50059533e-20
-1.780097092e-19
0.0025
1.552415115e-19
-6.682160098e-20
0.0025
4.429760564e-19
-4.342199508e-19
0.0025
2.392988181e-20
7.631495565e-19
0.0025
4.317202048e-20
2.396157443e-19
0.0025
-6.144849144e-20
-1.335783527e-19
0.0025
-3.592095568e-19
-4.799370273e-20
0.0025
-7.320842857e-20
-2.167440963e-19
0.0025
-1.847144123e-19
-5.974300743e-20
0.0025
1.065335232e-19
-1.671504478e-19
0.0025
3.008645958e-19
3.322676813e-19
0.0025
4.951983149e-19
3.23428425e-19
0.0025
-3.996571987e-19
-3.265890994e-19
0.0025
-7.963679913e-19
-1.06440299e-18
0.0025
-1.619644453e-18
-1.079320724e-18
0.0025
-1.504553902e-18
-1.098194989e-18
0.0025
-1.853795273e-18
-1.2063199e-18
0.0025
-1.257154332e-18
-1.10250041e-18
0.0025
-1.599823836e-18
-1.220089079e-18
0.0025
-1.616832063e-18
-7.439594965e-19
0.0025
-1.556846101e-18
-5.781916736e-19
0.0025
-1.357386857e-18
-5.001205549e-19
0.0025
-1.099792884e-18
-7.048838554e-19
0.0025
-1.145238296e-18
-2.678958079e-19
0.0025
-1.252498271e-18
-4.507286082e-19
0.0025
-1.061888671e-18
-5.702559156e-19
0.0025
-1.034462116e-18
-3.135877297e-19
0.0025
-1.05222975e-18
-2.275333879e-19
0.0025
-1.168496527e-18
-2.15908768e-19
0.0025
-1.058399054e-18
-1.764142674e-19
0.0025
-4.893326465e-19
-3.328074382e-19
0.0025
-7.610077033e-19
-4.986676146e-19
0.0025
-5.606523592e-19
-8.255977529e-19
0.0025
-7.334603042e-19
5.369584094e-19
0.0025
-6.416301872e-19
4.430050315e-19
0.0025
-8.053293269e-19
-1.409757004e-19
0.0025
-6.967086015e-19
-4.734870335e-19
0.0025
-7.40202592e-19
-4.554912765e-19
0.0025
-2.718275907e-19
-3.883782142e-19
0.0025
-3.21568831e-19
-1.167709811e-18
0.0025
-3.191663505e-19
7.527091734e-19
0.0025
-5.096276794e-19
2.763539426e-19
0.0025
-3.72385352e-19
7.347736394e-20
0.0025
-5.944268508e-19
-3.263883588e-19
0.0025
-6.271385285e-19
-4.107808268e-19
0.0025
-1.866196344e-19
-3.102710399e-19
0.0025
-2.896358748e-19
-4.536933533e-19
0.0025
3.871099473e-19
-7.419197679e-19
0.0025
2.539346305e-19
8.819372286e-19
0.0025
-1.909875184e-19
1.70910988e-19
0.0025
-3.59706966e-19
-3.220926558e-19
0.0025
-7.103418339e-19
-2.449215571e-19
0.0025
-4.105744496e-19
-3.372799799e-19
0.0025
-2.710876489e-19
-2.303601838e-19
0.0025
-1.301200336e-19
-3.046480148e-19
0.0025
3.008687338e-19
9.064687624e-20
0.0025
6.322509589e-19
7.847223531e-20
0.0025
-5.996134999e-20
4.544234497e-19
0.0025
2.067789506e-19
2.827412192e-19
0.0025
-1.603637534e-19
-9.772289886e-20
0.0025
-2.149625471e-19
-7.467538191e-20
0.0025
-2.01072676e-20
2.380926745e-20
0.0025
-2.3043938e-19
-6.916437972e-20
0.0025
-1.32921756e-19
-1.857808055e-19
0.0025
8.304606693e-20
9.619680593e-20
0.0025
-2.669980119e-20
-1.122687836e-20
0.0025
6.108800333e-19
1.041673147e-19
0.0025
-7.072597035e-20
-3.82740881e-19
0.0025
-4.94779573e-19
-7.380376707e-19
0.0025
-8.960076365e-19
-7.142153204e-19
0.0025
-1.106022736e-18
-1.06401548e-18
0.0025
-1.206851038e-18
-9.97389458e-19
0.0025
-1.010624579e-18
-1.125298332e-18
0.0025
-1.461910472e-18
-1.419343791e-18
0.0025
-1.688836336e-18
-7.50087539e-19
0.0025
-1.294170297e-18
-7.641410693e-19
0.0025
-1.387521377e-18
-6.290923036e-19
0.0025
-1.334693943e-18
-1.048503415e-18
0.0025
-1.185770735e-18
-8.000635284e-19
0.0025
-1.631932705e-18
-5.177375391e-19
0.0025
-1.298548389e-18
-5.136450238e-19
0.0025
-1.199148255e-18
-3.468070554e-19
0.0025
-7.917421878e-19
-5.76204933e-19
0.0025
-9.925908344e-19
-2.455832797e-19
0.0025
-1.049881334e-18
-8.722447755e-21
0.0025
-8.577892794e-19
-3.885345922e-19
0.0025
-7.891854455e-19
-5.791225313e-19
0.0025
-1.219202001e-18
-7.794388227e-19
0.0025
-7.595715822e-19
2.524799088e-19
0.0025
-7.482052123e-19
-9.683687666e-21
0.0025
-1.111917909e-18
-4.087539986e-20
0.0025
-7.958144961e-19
-4.042320827e-19
0.0025
-5.278739642e-19
-5.055627926e-19
0.0025
-5.70593598e-19
-6.960408982e-19
0.0025
-6.383672488e-19
-1.153268231e-18
0.0025
-7.090182694e-19
8.132079807e-19
0.0025
-6.276065275e-19
3.622594775e-19
0.0025
-5.589861136e-19
2.475372132e-19
0.0025
-6.683809946e-19
-1.662069064e-19
0.0025
-5.725476416e-19
-3.382860165e-19
0.0025
-2.743038161e-19
-7.443665884e-19
0.0025
-5.135198103e-19
-8.227586369e-19
0.0025
4.01958132e-20
-1.065200225e-18
0.0025
3.127308239e-19
7.430010282e-19
0.0025
-6.136158266e-19
1.620276582e-19
0.0025
-5.493208335e-19
-7.383869152e-20
0.0025
-5.762135962e-19
-2.295652622e-19
0.0025
-4.465653108e-19
-2.870513888e-19
0.0025
-3.807197403e-19
-2.358727681e-19
0.0025
-4.2442143e-19
-5.262881374e-19
0.0025
3.399906803e-20
-6.718610203e-19
0.0025
3.006090363e-19
-5.278167548e-19
0.0025
-2.466952654e-19
2.801454189e-19
0.0025
6.217888885e-20
3.510101451e-19
0.0025
-2.754545656e-19
-9.419528366e-20
0.0025
-5.473446841e-19
-2.790004518e-19
0.0025
-3.058029342e-19
-1.902010949e-19
0.0025
-3.843549616e-19
-1.434299267e-19
0.0025
-2.797587381e-19
-2.896689273e-19
0.0025
5.217165336e-20
-1.095369381e-19
0.0025
9.917346963e-20
-1.227494294e-19
0.0025
7.329474111e-19
-9.709134795e-20
0.0025
-1.180607724e-19
6.032543582e-19
0.0025
-2.190231465e-20
-7.811565147e-20
0.0025
-3.626120052e-19
-2.189336906e-19
0.0025
-4.729652141e-21
4.10552009e-20
0.0025
-2.677356961e-19
-1.351901381e-19
0.0025
-5.436568024e-20
6.553944172e-20
0.0025
-4.399234134e-20
-1.568227911e-19
0.0025
-1.307117068e-19
-2.936220689e-19
0.0025
-1.705644787e-19
2.108963952e-19
0.0025
1.014890592e-19
-2.187769122e-19
0.0025
-5.050658166e-20
-2.895043699e-19
0.0025
3.373361262e-20
-4.18307124e-19
0.0025
-6.077258979e-19
-8.73153796e-19
0.0025
-4.886022599e-19
-3.6172351e-19
0.0025
-7.460175139e-19
-8.611245581e-19
0.0025
-7.287514286e-19
-6.58737435e-19
0.0025
-5.861115275e-19
-9.324740769e-19
0.0025
-1.267715764e-18
-1.114424707e-18
0.0025
-1.24986716e-18
-9.256695374e-19
0.0025
-8.893814419e-19
-8.055268813e-19
0.0025
-1.029472959e-18
-6.975108056e-19
0.0025
-1.533594358e-18
-1.29194742e-18
0.0025
-1.319137162e-18
-1.070736393e-18
0.0025
-1.598004729e-18
-7.612306305e-19
0.0025
-1.296929428e-18
-5.599026279e-19
0.0025
-1.113510816e-18
-4.646993377e-19
0.0025
-9.545188085e-19
-5.953047393e-19
0.0025
-7.827249704e-19
-3.299409085e-19
0.0025
-1.074155407e-18
-3.732658291e-20
0.0025
-1.291382729e-18
-6.995732166e-19
0.0025
-1.114045403e-18
-7.078472891e-19
0.0025
-1.722798838e-18
-1.000909765e-18
0.0025
-9.459698425e-19
-5.003279672e-19
0.0025
-7.645462739e-19
-3.532031446e-19
0.0025
-1.070553554e-18
7.292172188e-20
0.0025
-9.328100876e-19
-1.685872924e-19
0.0025
-5.871406614e-19
-6.023248651e-19
0.0025
-1.055379692e-18
-8.436202039e-19
0.0025
-1.391949599e-18
-1.432966225e-18
0.0025
-1.170047856e-18
-3.332991828e-20
0.0025
-6.859506262e-19
1.248325689e-19
0.0025
-8.330052683e-19
2.734019048e-19
0.0025
-8.992209802e-19
-6.930998077e-21
0.0025
-4.7118769e-19
-4.230203997e-19
0.0025
-3.915649634e-19
-9.06996453e-19
0.0025
-6.084298766e-19
-1.021258938e-18
0.0025
-5.322340876e-19
-1.433547629e-18
0.0025
-1.483930376e-19
5.994734097e-19
0.0025
-8.474895243e-19
3.282434275e-19
0.0025
-7.522872686e-19
1.515332339e-19
0.0025
-5.731827996e-19
-1.424747824e-19
0.0025
-4.779418817e-19
-1.887298635e-19
0.0025
-5.588303234e-19
-3.01100459e-19
0.0025
-3.987282408e-19
-9.898229221e-19
0.0025
-3.437687565e-19
-1.107451704e-18
0.0025
-3.096281819e-20
-9.857506361e-19
0.0025
-2.520995774e-19
1.318012861e-19
0.0025
-2.580831046e-19
3.765284618e-19
0.0025
-4.473494467e-19
-4.921750027e-20
0.0025
-5.616933437e-19
-2.67951913e-19
0.0025
-4.018173964e-19
-1.717744675e-19
0.0025
-3.774245095e-19
-1.49245156e-19
0.0025
-3.055835766e-19
-3.673507744e-19
0.0025
-2.152996019e-19
-5.550512143e-19
0.0025
1.245248582e-20
-5.624915637e-19
0.0025
3.350170209e-19
-5.801671534e-19
0.0025
-5.539788394e-19
5.536772601e-19
0.0025
-5.431381351e-20
-2.499352348e-20
0.0025
-2.512886383e-19
-9.275615329e-20
0.0025
-1.208245014e-19
4.12110691e-20
0.0025
-2.521742814e-19
-1.021263117e-19
0.0025
-3.015186273e-19
1.57047645e-20
0.0025
-1.475255387e-19
-2.153338963e-19
0.0025
-1.337461803e-19
-2.76038592e-19
0.0025
-1.75504534e-19
6.724571338e-20
0.0025
3.450822108e-19
-3.126079746e-19
0.0025
1.72197636e-19
-5.22299382e-19
0.0025
-5.592058952e-20
3.273255194e-19
0.0025
-1.16290249e-19
1.676525195e-19
0.0025
-2.825201276e-19
1.254895743e-19
0.0025
2.048018073e-19
-1.075758323e-20
0.0025
6.938291243e-20
1.069431144e-19
0.0025
1.046904324e-19
-4.668901245e-20
0.0025
-7.59109691e-20
-2.542707017e-19
0.0025
-1.332638851e-19
-1.455324758e-19
0.0025
-2.074171475e-19
-2.291139549e-19
0.0025
-4.314166826e-19
-2.309120369e-19
0.0025
-7.185498381e-20
6.107014639e-21
0.0025
4.369850903e-19
-1.318062795e-19
0.0025
-3.262862494e-19
-1.006934815e-18
0.0025
-5.713984128e-19
-1.003696288e-18
0.0025
-4.520927265e-19
-4.432485818e-19
0.0025
-6.996423051e-19
-5.884973559e-19
0.0025
-6.096131493e-19
-7.089513639e-19
0.0025
-4.220208102e-19
-6.1047671e-19
0.0025
-8.434498091e-19
-7.562995316e-19
0.0025
-8.331544566e-19
-8.426007797e-19
0.0025
-7.018944187e-19
-6.948136844e-19
0.0025
-6.351439302e-19
-6.627145434e-19
0.0025
-1.354558768e-18
-1.075848415e-18
0.0025
-1.292126763e-18
-9.455744158e-19
0.0025
-1.082705834e-18
-7.112883066e-19
0.0025
-8.437535954e-19
-6.288294315e-19
0.0025
-6.539980406e-19
-3.138100334e-19
0.0025
-1.278007072e-18
-6.786161866e-19
0.0025
-8.06252022e-19
-5.313972191e-19
0.0025
-1.192017674e-18
-3.663832288e-19
0.0025
-1.260410627e-18
-6.205157351e-19
0.0025
-1.045053594e-18
-6.850339739e-19
0.0025
-1.464297258e-18
-7.215207673e-19
0.0025
-1.178709948e-18
-6.177317346e-19
0.0025
-8.472320172e-19
-5.262491017e-19
0.0025
-9.252175025e-19
-5.933343676e-20
0.0025
-1.09402676e-18
-5.662740911e-20
0.0025
-9.607209303e-19
-6.16446521e-19
0.0025
-1.466198211e-18
-9.461193654e-19
0.0025
-1.560135191e-18
-1.557847401e-18
0.0025
-1.725422854e-18
-8.762280857e-19
0.0025
-7.010186213e-19
-2.539849272e-19
0.0025
-8.772397649e-19
-3.701093264e-20
0.0025
-1.014258351e-18
-4.94940414e-20
0.0025
-7.127323222e-19
-5.286396305e-19
0.0025
-7.984176718e-19
-9.863586241e-19
0.0025
-9.806189778e-19
-1.018752927e-18
0.0025
-1.076974822e-18
-1.799724555e-18
0.0025
-1.084652456e-18
2.188869555e-19
0.0025
-8.976094027e-19
-1.479566243e-19
0.0025
-8.516253719e-19
9.739077551e-20
0.0025
-7.245814107e-19
-5.019327938e-21
0.0025
-8.001079468e-19
-4.42454656e-19
0.0025
-7.020035521e-19
-6.705867925e-19
0.0025
-3.404696651e-19
-1.09268463e-18
0.0025
-6.187661224e-19
-1.158545365e-18
0.0025
-4.253311998e-19
-1.430673264e-18
0.0025
-1.607360096e-19
4.627579457e-19
0.0025
-5.122598388e-19
3.014704156e-19
0.0025
-9.614047715e-19
-1.577141184e-19
0.0025
-8.178734016e-19
-2.932008518e-19
0.0025
-7.202519399e-19
-3.121725661e-19
0.0025
-7.41947603e-19
-4.852318305e-19
0.0025
-4.754931884e-19
-7.768146852e-19
0.0025
-3.246812599e-19
-8.819351363e-19
0.0025
-1.962576263e-19
-8.823579138e-19
0.0025
7.108374382e-20
-8.774762168e-19
0.0025
-7.102432234e-19
1.509323178e-19
0.0025
-1.808369157e-19
6.345134335e-20
0.0025
-2.991762626e-19
8.515526877e-20
0.0025
-3.870016686e-19
-1.512412714e-19
0.0025
-4.531004003e-19
-2.169458808e-19
0.0025
-4.204239357e-19
-4.651730361e-20
0.0025
-2.930047062e-19
-3.228303524e-19
0.0025
-3.090197865e-19
-4.14883356e-19
0.0025
-1.012874913e-19
-3.248014906e-19
0.0025
1.783500729e-19
-4.476649481e-19
0.0025
4.189963574e-19
-4.821697663e-19
0.0025
-6.5388159e-20
7.918341712e-19
0.0025
-2.449605772e-19
1.969863909e-19
0.0025
-3.057941066e-19
2.523879326e-19
0.0025
2.165884036e-19
4.742285218e-20
0.0025
1.733787294e-19
2.64060606e-20
0.0025
-5.456301357e-20
7.161438273e-20
0.0025
-2.218527875e-19
-1.888077885e-19
0.0025
-1.413534443e-19
-1.418851776e-19
0.0025
-1.980729221e-19
-1.837905315e-19
0.0025
-2.469838285e-19
-3.163893647e-19
0.0025
1.106611557e-19
-2.078930207e-19
0.0025
7.916763287e-19
-1.827485548e-19
0.0025
3.276281564e-19
9.369418704e-19
0.0025
-1.545172301e-19
-3.297292973e-20
0.0025
1.540690468e-19
2.442772461e-19
0.0025
1.680688717e-19
3.334765254e-19
0.0025
3.571596229e-19
3.454782566e-21
0.0025
5.327000613e-20
-6.007808966e-20
0.0025
-3.059352104e-19
3.580874721e-20
0.0025
-7.877730774e-20
-4.00776822e-19
0.0025
-2.578640786e-20
-6.710043984e-20
0.0025
-3.132541118e-19
-3.189342462e-20
0.0025
-1.091400808e-19
-3.108172255e-20
0.0025
5.001457047e-20
3.233262023e-20
0.0025
8.153651342e-19
1.92673304e-19
0.0025
-8.940822135e-19
-1.922140377e-18
0.0025
-8.821991983e-19
-1.357749796e-18
0.0025
-4.666096795e-19
-1.023270422e-18
0.0025
-7.846195708e-19
-7.319371591e-19
0.0025
-7.043350117e-19
-9.386678326e-19
0.0025
-4.6437506e-19
-6.981145534e-19
0.0025
-6.106352419e-19
-5.871174321e-19
0.0025
-6.788253059e-19
-5.500740249e-19
0.0025
-6.234266987e-19
-7.93738633e-19
0.0025
-6.054026438e-19
-7.590702171e-19
0.0025
-8.702497561e-19
-7.642640984e-19
0.0025
-1.030502125e-18
-8.010634461e-19
0.0025
-7.242824038e-19
-6.500482173e-19
0.0025
-7.120723863e-19
-6.742356381e-19
0.0025
-3.063781952e-19
-1.640167648e-19
0.0025
-1.170755001e-18
-6.483428619e-19
0.0025
-9.03204612e-19
-6.415624537e-19
0.0025
-9.779951461e-19
-5.389080761e-19
0.0025
-8.82181341e-19
-3.225868966e-19
0.0025
-5.782019039e-19
-4.667291536e-19
0.0025
-8.935161855e-19
-3.673955573e-19
0.0025
-1.237292513e-18
-4.021717588e-19
0.0025
-7.211554551e-19
-6.0595154e-19
0.0025
-8.683394051e-19
-1.321010851e-19
0.0025
-9.529592171e-19
-1.83272631e-19
0.0025
-9.522092914e-19
-3.931440972e-19
0.0025
-1.197483815e-18
-7.142242086e-19
0.0025
-1.250180092e-18
-1.077802051e-18
0.0025
-1.809513698e-18
-8.052778828e-19
0.0025
-9.104898281e-19
-3.854751728e-19
0.0025
-8.146712517e-19
-3.700428162e-19
0.0025
-9.688142195e-19
-2.57551977e-19
0.0025
-1.0332509e-18
-6.418320988e-19
0.0025
-1.106242931e-18
-6.373735356e-19
0.0025
-1.161070512e-18
-9.653792689e-19
0.0025
-9.736137746e-19
-1.631358701e-18
0.0025
-1.595519027e-18
3.120238263e-19
0.0025
-8.000403255e-19
-5.624014936e-19
0.0025
-7.23855828e-19
-4.41938299e-20
0.0025
-8.623000075e-19
-7.878997179e-20
0.0025
-1.085056908e-18
-6.117813446e-19
0.0025
-8.430756205e-19
-8.15712065e-19
0.0025
-6.638454772e-19
-1.048775441e-18
0.0025
-1.048863783e-18
-1.282316786e-18
0.0025
-6.315746369e-19
-1.681878564e-18
0.0025
-6.570332603e-19
4.715570708e-19
0.0025
-8.544451007e-19
8.668824239e-21
0.0025
-9.757448259e-19
-1.455815921e-19
0.0025
-9.039459033e-19
-2.814374748e-19
0.0025
-1.108224052e-18
-5.127967695e-19
0.0025
-1.135902989e-18
-9.685189671e-19
0.0025
-5.704900443e-19
-1.097519342e-18
0.0025
-4.813928946e-19
-1.217809564e-18
0.0025
-5.363208599e-19
-1.083140008e-18
0.0025
-3.406157371e-19
-1.105676324e-18
0.0025
-5.163643398e-19
2.587372166e-20
0.0025
-3.483109424e-19
4.943676169e-19
0.0025
-7.700664257e-19
1.431712009e-19
0.0025
-6.080013799e-19
-4.346214585e-19
0.0025
-9.490343391e-19
-4.643403243e-19
0.0025
-7.97548976e-19
-4.003399723e-19
0.0025
-6.793608589e-19
-7.690142932e-19
0.0025
-5.421751321e-19
-8.517294729e-19
0.0025
-6.265288318e-20
-5.680981397e-19
0.0025
-1.145898496e-19
-6.575513038e-19
0.0025
4.417679674e-19
-3.899711795e-19
0.0025
-1.224781178e-19
7.386945575e-19
0.0025
-4.078558108e-19
-4.952040065e-20
0.0025
-3.02094932e-19
1.951754794e-19
0.0025
-1.80881416e-19
-6.577289523e-20
0.0025
-3.140435191e-19
-1.839463058e-19
0.0025
-3.852367796e-19
-1.008735375e-19
0.0025
-4.585620842e-19
-3.063033561e-19
0.0025
-2.706013387e-19
-2.202221897e-19
0.0025
-1.476911385e-19
-3.571355325e-19
0.0025
4.217027582e-20
-2.761224713e-19
0.0025
2.725880997e-19
-3.581416472e-19
0.0025
5.724972675e-19
-2.679573502e-19
0.0025
4.233384428e-19
1.004690762e-18
0.0025
-3.076885556e-19
3.258496827e-19
0.0025
2.158920799e-21
2.510034845e-19
0.0025
1.889189418e-19
3.032821188e-19
0.0025
2.582423308e-19
-5.040305721e-20
0.0025
5.152502201e-20
-3.092130902e-20
0.0025
-4.379797623e-19
-4.797711679e-20
0.0025
-1.921241611e-19
-3.044820795e-19
0.0025
-1.459861028e-19
1.792005136e-20
0.0025
-2.821958826e-19
-7.864304319e-20
0.0025
2.626634463e-20
-2.073199439e-19
0.0025
3.607612132e-19
-1.326210099e-19
0.0025
7.341342622e-19
3.309653891e-19
0.0025
3.840370223e-19
5.888815096e-19
0.0025
-1.845419656e-19
4.796364517e-19
0.0025
5.120202879e-19
-2.098068133e-21
0.0025
-3.960649005e-20
1.777958206e-19
0.0025
-9.600793919e-20
-1.388443144e-19
0.0025
-2.293160944e-20
-2.552798981e-19
0.0025
-1.741240928e-19
-1.406121292e-19
0.0025
-1.832128947e-19
1.714056145e-19
0.0025
1.47079441e-19
-1.246916251e-19
0.0025
1.11318046e-19
9.856525933e-20
0.0025
-1.890296069e-19
2.0138784e-19
0.0025
-2.750445522e-20
2.314795976e-19
0.0025
5.033882052e-19
-1.641285802e-19
0.0025
3.966855144e-19
3.023741581e-19
0.0025
-1.169367412e-18
-2.210047911e-18
0.0025
-1.388358704e-18
-1.971076219e-18
0.0025
-5.319531762e-19
-1.711928123e-18
0.0025
-1.104045629e-18
-1.001844999e-18
0.0025
-7.723805726e-19
-1.396239212e-18
0.0025
-5.770384788e-19
-1.032872031e-18
0.0025
-7.388783583e-19
-6.362078072e-19
0.0025
-7.635753271e-19
-6.652591175e-19
0.0025
-6.40281846e-19
-1.010651098e-18
0.0025
-6.505907811e-19
-9.240889221e-19
0.0025
-6.461443543e-19
-5.176431138e-19
0.0025
-6.605033965e-19
-6.61027947e-19
0.0025
-5.647155188e-19
-6.028174638e-19
0.0025
-7.331762321e-19
-7.532895782e-19
0.0025
-3.883641155e-19
-3.47080143e-19
0.0025
-6.926390151e-19
-6.097013794e-19
0.0025
-9.39466723e-19
-6.47261763e-19
0.0025
-6.47889611e-19
-6.411744789e-19
0.0025
-7.757452681e-19
-3.80586901e-19
0.0025
-4.307466506e-19
-5.058550776e-19
0.0025
-6.284524619e-19
-8.624982831e-20
0.0025
-1.053198594e-18
-2.223571217e-19
0.0025
-6.463237979e-19
-4.979990181e-19
0.0025
-7.102765498e-19
-2.714734608e-19
0.0025
-8.672642652e-19
-3.801868652e-19
0.0025
-7.503673716e-19
-2.774081532e-19
0.0025
-5.810617608e-19
-4.340291502e-19
0.0025
-9.828357815e-19
-7.008443488e-19
0.0025
-1.60346558e-18
-3.691289288e-19
0.0025
-8.597524403e-19
-3.290822556e-19
0.0025
-6.741375618e-19
-3.405661208e-19
0.0025
-8.731251571e-19
-2.229039925e-19
0.0025
-9.468128163e-19
-5.808587152e-19
0.0025
-1.067307797e-18
-5.785970605e-19
0.0025
-1.031327272e-18
-6.782953277e-19
0.0025
-1.039779611e-18
-1.412016931e-18
0.0025
-1.489525215e-18
4.260383265e-19
0.0025
-7.834242074e-19
-4.42765019e-19
0.0025
-6.185839105e-19
-1.862196814e-19
0.0025
-8.517254067e-19
-2.462499824e-19
0.0025
-1.169685978e-18
-6.123054185e-19
0.0025
-8.791245863e-19
-8.141068248e-19
0.0025
-1.069173406e-18
-8.869233289e-19
0.0025
-9.600989041e-19
-1.170224454e-18
0.0025
-7.960940565e-19
-1.563744287e-18
0.0025
-1.355414164e-18
2.397277996e-19
0.0025
-1.011728598e-18
-1.587400079e-20
0.0025
-8.907355637e-19
-2.151097518e-19
0.0025
-9.196498461e-19
-2.134673593e-19
0.0025
-1.04846015e-18
-4.984856121e-19
0.0025
-1.075380084e-18
-1.058263185e-18
0.0025
-9.124255672e-19
-1.11019666e-18
0.0025
-9.115557317e-19
-1.238792096e-18
0.0025
-7.394145966e-19
-1.292298634e-18
0.0025
-6.884018974e-19
-1.223530886e-18
0.0025
-6.376184287e-19
1.023107378e-19
0.0025
-7.96243934e-19
5.609050604e-19
0.0025
-8.459489354e-19
4.308574015e-20
0.0025
-5.506927066e-19
-2.002845883e-19
0.0025
-1.105046563e-18
-6.497196553e-19
0.0025
-8.99457974e-19
-6.52205313e-19
0.0025
-8.84598156e-19
-8.248355462e-19
0.0025
-5.543301449e-19
-1.030350138e-18
0.0025
-9.084595528e-20
-9.977004569e-19
0.0025
-4.282156075e-19
-8.207416788e-19
0.0025
1.205259075e-19
-5.624380773e-19
0.0025
-2.894063017e-19
5.079246789e-19
0.0025
-6.072434976e-19
-3.014198078e-19
0.0025
-5.99305019e-19
2.748468956e-19
0.0025
-4.636733853e-19
-1.613082435e-19
0.0025
-7.846578143e-19
-2.977129403e-19
0.0025
-7.346314294e-19
-4.056397924e-19
0.0025
-7.440904152e-19
-6.431746617e-19
0.0025
-6.274033636e-19
-5.322011425e-19
0.0025
-1.334676972e-19
-6.316694527e-19
0.0025
-9.75501375e-21
-3.117401814e-19
0.0025
2.313373769e-19
-2.625690374e-19
0.0025
4.062882433e-19
-2.074336681e-19
0.0025
-1.656532255e-20
4.403812342e-19
0.0025
-2.246363235e-19
5.210022751e-19
0.0025
-7.330302102e-20
1.39528802e-19
0.0025
-1.470429453e-19
4.269587092e-20
0.0025
-1.43020794e-19
-3.137651259e-20
0.0025
-2.078419703e-19
-6.642066378e-21
0.0025
-4.056267397e-19
-1.635347077e-19
0.0025
-2.3050688e-19
-2.634668927e-19
0.0025
-2.295805792e-19
-8.069278135e-20
0.0025
-3.149144614e-23
-1.866695545e-19
0.0025
8.157146607e-20
-2.511862182e-19
0.0025
4.496863512e-19
-1.911863513e-19
0.0025
5.097165261e-19
1.842890826e-19
0.0025
4.063518402e-19
6.470459267e-19
0.0025
-2.632751973e-19
4.819739354e-19
0.0025
4.253038246e-19
2.168690751e-19
0.0025
-2.188124744e-19
1.544825496e-19
0.0025
-2.727713253e-19
-2.8929226e-19
0.0025
3.932933223e-20
-2.259483312e-19
0.0025
-2.503046231e-19
-6.093383869e-20
0.0025
-2.187517228e-19
2.070399927e-20
0.0025
-4.975411155e-20
-1.091680199e-19
0.0025
-4.061118114e-20
1.298422938e-19
0.0025
-3.845630431e-20
7.274871291e-20
0.0025
2.448890898e-19
2.704914375e-20
0.0025
6.136865569e-19
4.080984885e-21
0.0025
4.765532529e-19
3.398384062e-19
0.0025
-1.169982053e-19
1.96839323e-19
0.0025
-1.307264082e-19
6.301750271e-19
0.0025
3.464485781e-19
4.154758123e-20
0.0025
1.62263233e-19
-7.394361668e-21
0.0025
-2.092357082e-19
-1.35561617e-19
0.0025
-8.235727063e-20
-2.497115529e-19
0.0025
1.649228769e-19
-1.601513087e-19
0.0025
-1.676606331e-19
-1.323201833e-19
0.0025
-2.468272919e-19
2.647711925e-20
0.0025
1.841837871e-19
1.0111007e-19
0.0025
-5.017567602e-20
4.241236641e-19
0.0025
5.757304655e-20
1.483308282e-19
0.0025
5.952315746e-20
-1.069911815e-19
0.0025
1.496624061e-20
-2.055645326e-19
0.0025
2.344888233e-19
3.499177679e-19
0.0025
-1.678116527e-18
-2.122292703e-18
0.0025
-1.56725401e-18
-2.169420924e-18
0.0025
-6.884433261e-19
-2.132754144e-18
0.0025
-1.581220153e-18
-1.59773288e-18
0.0025
-9.190311315e-19
-1.912863807e-18
0.0025
-8.958676155e-19
-1.385564751e-18
0.0025
-1.015677077e-18
-9.103211964e-19
0.0025
-1.033196888e-18
-1.043683399e-18
0.0025
-6.934690977e-19
-1.379146722e-18
0.0025
-6.070295031e-19
-1.148125869e-18
0.0025
-7.624422138e-19
-5.79087074e-19
0.0025
-6.45766796e-19
-7.990007258e-19
0.0025
-5.282555322e-19
-7.121255308e-19
0.0025
-7.912971445e-19
-8.771688442e-19
0.0025
-4.634438424e-19
-6.856410667e-19
0.0025
-5.670178146e-19
-4.114442167e-19
0.0025
-6.506936679e-19
-5.791517483e-19
0.0025
-5.267271109e-19
-7.30752445e-19
0.0025
-8.2508964e-19
-7.428020101e-19
0.0025
-4.327196411e-19
-4.261933437e-19
0.0025
-5.640097085e-19
-1.196026376e-19
0.0025
-7.521264498e-19
-5.255808654e-19
0.0025
-7.601813177e-19
-4.897880787e-19
0.0025
-6.510574048e-19
-4.303193068e-19
0.0025
-7.583085032e-19
-5.319167067e-19
0.0025
-5.447411721e-19
-2.956323166e-19
0.0025
-5.497309434e-19
-6.047577531e-19
0.0025
-7.827422991e-19
-2.484489549e-19
0.0025
-1.340536057e-18
-4.488009504e-19
0.0025
-8.504862289e-19
-3.207301074e-19
0.0025
-7.526278656e-19
-2.874936196e-19
0.0025
-8.116070837e-19
-1.53894772e-19
0.0025
-6.694978044e-19
-4.945195939e-19
0.0025
-8.429088394e-19
-6.42701519e-19
0.0025
-8.19312135e-19
-6.021527969e-19
0.0025
-9.913674917e-19
-1.066379423e-18
0.0025
-1.365685507e-18
2.668810119e-19
0.0025
-9.629825653e-19
-5.269161665e-19
0.0025
-7.119761182e-19
-1.807175833e-19