/*--------------------------------*- C++ -*----------------------------------*\
| =========                 |                                                 |
| \\      /  F ield         | OpenFOAM: The Open Source CFD Toolbox           |
|  \\    /   O peration     | Version:  2212                                  |
|   \\  /    A nd           | Website:  www.openfoam.com                      |
|    \\/     M anipulation  |                                                 |
\*---------------------------------------------------------------------------*/
FoamFile
{
    version     2.0;
    format      ascii;
    arch        "LSB;label=32;scalar=64";
    class       volVectorField;
    location    "1.2";
    object      U;
}
// * * * * * * * * * * * * * * * * * * * * * * * * * * * * * * * * * * * * * //

dimensions      [0 1 -1 0 0 0 0];

internalField   nonuniform List<vector> 
42875
(
(1 -6.007125613e-18 1.795953014e-16)
(1 -1.740862718e-16 3.322262017e-17)
(1 1.585474433e-16 1.644609232e-16)
(1 -3.580122861e-17 1.145360822e-17)
(1 -6.711393304e-16 -4.112217701e-16)
(1 -1.012562361e-16 1.035567658e-16)
(1 -1.460476007e-16 -9.926858677e-17)
(1 4.890812467e-18 -1.766274359e-17)
(1 -2.680130993e-17 1.160988175e-16)
(1 7.255982721e-17 -9.474313856e-17)
(1 -1.042533085e-15 -7.170782819e-16)
(1 -6.475236121e-16 -3.764798745e-17)
(1 -2.918304089e-16 -4.778891643e-16)
(1 -2.741865036e-16 5.028558635e-17)
(1 -9.400332294e-17 5.329310714e-17)
(1 -5.39383496e-17 -2.949395585e-16)
(1 -4.183026916e-16 1.987655451e-16)
(1 5.347145651e-18 -1.190546889e-16)
(1 2.333859686e-17 -3.344503348e-17)
(1 5.717388081e-18 -9.949839499e-17)
(1 -1.285142679e-15 -1.012642648e-15)
(1 -1.033465298e-15 -5.905707289e-17)
(1 -3.687031441e-16 -7.921801648e-16)
(1 -6.809472509e-16 -9.863858446e-17)
(1 -3.324858313e-16 -1.294470253e-16)
(1 -2.847946185e-16 -4.768976447e-16)
(1 -3.517186025e-16 2.671997081e-16)
(1 -1.385551104e-16 -6.161522616e-17)
(1 -1.050595463e-16 -1.508993966e-16)
(1 1.517823085e-17 -2.65374195e-16)
(1 -2.660725765e-16 3.999769591e-16)
(1 -2.220373848e-17 1.585182474e-16)
(1 3.382374292e-17 -1.959521519e-16)
(1 -1.205296058e-16 1.516205937e-17)
(1 2.504158206e-16 -4.096202562e-16)
(1 -1.281137794e-15 -1.105969634e-15)
(1 -1.282542981e-15 -1.469464702e-16)
(1 -4.136921677e-16 -8.75075749e-16)
(1 -7.442836121e-16 -1.29594514e-16)
(1 -5.304201183e-16 -1.966811672e-16)
(1 -3.934789167e-16 -6.799969123e-16)
(1 -5.566717522e-16 3.047548778e-16)
(1 -3.166095487e-16 -1.859353432e-16)
(1 -3.543213447e-16 -2.731979469e-16)
(1 -7.732876424e-17 -2.646747753e-16)
(1 -2.41429437e-16 2.999534565e-16)
(1 -1.311374875e-16 2.528869723e-16)
(1 -9.059228894e-17 -1.986863591e-16)
(1 -1.812121903e-17 -5.225495797e-17)
(1 1.646761659e-16 -1.973647843e-16)
(1 4.577986586e-17 2.16113329e-16)
(1 -2.13374427e-16 2.749434773e-16)
(1 -7.213081165e-18 -1.271081594e-16)
(1 -8.909836622e-17 9.763445735e-17)
(1 2.575932163e-16 -2.027002499e-16)
(1 2.149789829e-16 -4.32387234e-17)
(1 -1.038954608e-15 -8.225304159e-16)
(1 -1.155771691e-15 -6.148693503e-16)
(1 -7.533287308e-16 -1.026832634e-15)
(1 -7.427163457e-16 -2.89445531e-16)
(1 -6.736692174e-16 -3.293424608e-16)
(1 -5.63904898e-16 -5.978142089e-16)
(1 -6.739701904e-16 1.472358738e-16)
(1 -6.101467914e-16 -3.714170055e-16)
(1 -6.473563207e-16 -4.668672313e-16)
(1 -1.206321513e-16 -4.680658053e-16)
(1 -4.124171667e-16 1.641556555e-16)
(1 -3.608701195e-16 1.965806376e-16)
(1 -3.100386508e-16 -1.946065927e-16)
(1 -7.222613093e-17 -1.407261521e-16)
(1 -1.022690414e-16 -2.14306354e-16)
(1 -1.331032519e-16 3.376604494e-16)
(1 -1.964315752e-16 1.67223226e-16)
(1 -1.496209477e-16 -1.34944256e-17)
(1 -3.734600774e-18 -1.700957032e-17)
(1 1.1670274e-16 -1.785579327e-16)
(1 4.679703841e-17 -4.930398416e-17)
(1 -1.132639585e-16 2.311213007e-16)
(1 -9.842960017e-17 1.613160007e-16)
(1 -2.060674038e-16 -1.512210979e-17)
(1 1.225880351e-16 -4.536830011e-17)
(1 -2.451352972e-17 -3.019620109e-17)
(1 2.438015033e-16 -2.068709348e-16)
(1 5.469625909e-17 -2.400726476e-17)
(1 -6.107762057e-16 -3.560749833e-16)
(1 -1.049009761e-15 -7.589850601e-16)
(1 -9.854195252e-16 -1.043547954e-15)
(1 -8.503775344e-16 -7.093661746e-16)
(1 -8.358508922e-16 -5.768440447e-16)
(1 -7.137011059e-16 -4.931839237e-16)
(1 -6.824356569e-16 6.617437414e-18)
(1 -6.119080881e-16 -4.049485159e-16)
(1 -7.700994303e-16 -4.325671312e-16)
(1 -2.072151685e-16 -6.822726135e-16)
(1 -5.788763125e-16 9.592856289e-17)
(1 -5.107388178e-16 5.44042985e-18)
(1 -5.255376374e-16 -3.873827262e-16)
(1 -2.418058302e-16 -3.129130268e-16)
(1 -2.286557846e-16 -2.148498364e-16)
(1 -2.867304012e-16 4.461531544e-16)
(1 -2.944526534e-16 1.711394013e-17)
(1 -3.854921252e-16 8.475624746e-17)
(1 1.092171426e-17 -1.046122506e-16)
(1 -1.758034843e-16 -2.626318149e-16)
(1 -1.136183929e-16 -3.03067198e-16)
(1 -1.249416606e-16 3.035235205e-16)
(1 -1.300974911e-16 2.300584988e-16)
(1 -2.905695432e-16 -1.079960765e-17)
(1 4.187439127e-17 -7.23488562e-17)
(1 -1.056904532e-16 -1.118477844e-16)
(1 5.117117793e-17 -1.821286546e-16)
(1 3.103766788e-18 -1.785063644e-16)
(1 -2.957951648e-16 1.937110917e-16)
(1 -1.162964711e-16 1.490982603e-16)
(1 -2.934787546e-17 2.422978883e-17)
(1 -5.543948259e-17 -7.472542198e-17)
(1 -1.524986942e-16 1.02414667e-16)
(1 2.045268818e-16 -1.416921236e-16)
(1 1.443778094e-16 1.862225776e-17)
(1 2.461723486e-16 -9.705282244e-17)
(1 -3.437356942e-16 -6.331473722e-17)
(1 -6.907821262e-16 -6.123194846e-16)
(1 -8.754628619e-16 -6.404659939e-16)
(1 -8.415317941e-16 -6.950107261e-16)
(1 -9.742430112e-16 -7.269689591e-16)
(1 -6.28776317e-16 -5.65907003e-16)
(1 -8.282239686e-16 -2.926705424e-16)
(1 -5.715577485e-16 -5.576217008e-16)
(1 -6.83033618e-16 -2.320533442e-16)
(1 -4.209562638e-16 -5.440254814e-16)
(1 -4.434162919e-16 -8.250678625e-17)
(1 -5.197736911e-16 -4.472338814e-17)
(1 -5.319053931e-16 -3.876537011e-16)
(1 -4.324425768e-16 -4.417509077e-16)
(1 -2.742830044e-16 -2.619100218e-16)
(1 -5.420346002e-16 2.849530438e-16)
(1 -5.058203212e-16 -1.022286118e-16)
(1 -4.190902547e-16 4.382876776e-17)
(1 -7.399308584e-17 -1.695263245e-16)
(1 -3.323704696e-16 -2.917140975e-16)
(1 -1.568071695e-16 -3.167347233e-16)
(1 -1.41758881e-16 2.281082056e-16)
(1 -2.693081104e-16 2.58476968e-16)
(1 -3.4333684e-16 -4.822892669e-17)
(1 -2.028359751e-16 -9.018170817e-17)
(1 -2.905230399e-16 -2.597644269e-16)
(1 -9.023047811e-17 -1.352020749e-16)
(1 3.463442065e-17 -3.472266358e-16)
(1 -2.924592986e-16 2.84975388e-16)
(1 -1.920127953e-16 2.62301412e-16)
(1 -8.344498612e-17 9.765845104e-17)
(1 -7.290400563e-17 -4.109341635e-17)
(1 -1.609317252e-16 -7.722994352e-17)
(1 1.008600863e-16 -8.688243374e-17)
(1 6.143702095e-17 -8.238331487e-17)
(1 1.532094017e-16 -3.247961319e-16)
(1 -2.768892407e-17 3.48250564e-16)
(1 -1.700246281e-16 2.32702652e-16)
(1 -6.358643323e-17 -1.107927002e-16)
(1 -2.051401771e-16 -1.126775917e-17)
(1 -2.047817952e-16 -1.698548707e-16)
(1 -2.037568189e-17 -1.788218602e-17)
(1 1.68101558e-16 -7.902765215e-17)
(1 2.008197867e-16 1.682657828e-16)
(1 3.786480973e-16 7.597248678e-17)
(1 -1.40781177e-16 2.588834774e-17)
(1 -1.972039256e-16 -3.888312874e-16)
(1 -6.942248282e-16 -3.302696601e-16)
(1 -5.42851631e-16 -5.259924108e-16)
(1 -8.237415338e-16 -6.106868227e-16)
(1 -5.91315269e-16 -4.837753249e-16)
(1 -7.88399704e-16 -4.924602995e-16)
(1 -6.470424893e-16 -5.350553821e-16)
(1 -5.293062208e-16 -2.82373886e-16)
(1 -6.092983898e-16 -3.327098383e-16)
(1 -3.866959273e-16 -3.925147502e-16)
(1 -5.577463063e-16 -2.456220747e-16)
(1 -5.55276763e-16 -1.790928125e-16)
(1 -5.063248796e-16 -2.988455824e-16)
(1 -4.185933658e-16 -1.54749693e-16)
(1 -6.095046316e-16 -1.640389333e-16)
(1 -5.825442293e-16 -1.316113896e-16)
(1 -4.2123181e-16 -7.045327283e-17)
(1 -2.681962117e-16 -2.414672539e-16)
(1 -3.383726994e-16 -2.374917376e-16)
(1 -1.588870766e-16 -3.098174462e-16)
(1 -3.114757317e-16 2.288188491e-16)
(1 -3.949367645e-16 2.178860595e-16)
(1 -4.198771338e-16 -1.19901846e-16)
(1 -2.23251596e-16 -1.438027336e-16)
(1 -3.387417912e-16 -1.519898379e-16)
(1 -1.723373523e-16 -1.875873074e-16)
(1 -7.535880368e-17 -4.614317677e-16)
(1 -4.048901306e-16 4.102418259e-16)
(1 -1.865216141e-16 1.573192035e-16)
(1 -1.598761055e-16 5.307337306e-17)
(1 -3.568840208e-16 -5.035900474e-17)
(1 -3.390574599e-16 -3.22218724e-16)
(1 -2.515815709e-17 -1.342771961e-16)
(1 -4.242854114e-17 -9.290055793e-17)
(1 1.852569047e-16 -4.240770193e-16)
(1 1.015102696e-16 3.692986747e-16)
(1 -2.085894365e-16 1.848679895e-16)
(1 -1.63227873e-16 -1.400347e-16)
(1 -2.738567171e-16 1.753184979e-17)
(1 -1.871545533e-16 -2.243239848e-16)
(1 -5.609779329e-17 -5.160255234e-17)
(1 1.944700559e-18 -6.176223372e-17)
(1 1.48464594e-16 -3.063625252e-17)
(1 2.682403559e-16 -7.218693531e-17)
(1 3.984874284e-17 3.313837998e-16)
(1 1.102859782e-16 3.679056641e-16)
(1 -1.21306513e-16 -6.314417135e-17)
(1 -2.170253423e-16 -1.43491099e-17)
(1 4.56592844e-17 -5.371198605e-17)
(1 -2.364055576e-16 -1.632678841e-17)
(1 -6.310261551e-17 -9.336564661e-17)
(1 9.107973857e-17 -1.331644864e-16)
(1 9.967258634e-17 1.039652139e-16)
(1 3.20436119e-16 1.641450293e-16)
(1 1.132305038e-16 -8.528900379e-17)
(1 -7.19054251e-17 -2.710548315e-16)
(1 -3.77884357e-16 -1.748583838e-16)
(1 -3.191465697e-16 -4.633403966e-16)
(1 -5.747896641e-16 -4.576618471e-16)
(1 -4.433821476e-16 -4.551583197e-16)
(1 -6.162543987e-16 -5.8531911e-16)
(1 -6.037340049e-16 -4.135869595e-16)
(1 -4.314033428e-16 -3.344497481e-16)
(1 -6.124882732e-16 -3.872412142e-16)
(1 -4.903506223e-16 -5.750708924e-16)
(1 -6.968497753e-16 -5.664856622e-16)
(1 -6.762785805e-16 -1.335273184e-16)
(1 -5.328882745e-16 -2.321204293e-16)
(1 -4.662916538e-16 -6.751547134e-17)
(1 -5.916296443e-16 -2.600443018e-16)
(1 -4.359683725e-16 -2.671908152e-16)
(1 -5.158796142e-16 -8.545303205e-17)
(1 -4.159713432e-16 -2.447042643e-16)
(1 -3.924164023e-16 -2.102520136e-16)
(1 -4.588327373e-16 -2.582774359e-16)
(1 -3.259388396e-16 1.208240514e-16)
(1 -4.470936658e-16 -1.727786685e-16)
(1 -5.297132905e-16 -1.101861105e-16)
(1 -2.333499311e-16 -1.801263734e-16)
(1 -2.779570252e-16 -1.503572507e-16)
(1 -3.011732843e-16 -2.515870403e-16)
(1 -1.74742941e-16 -3.585904699e-16)
(1 -4.115818309e-16 4.020000099e-16)
(1 -2.215321633e-16 1.701314352e-16)
(1 -3.049962792e-16 1.021122187e-16)
(1 -4.341550152e-16 -5.972713904e-17)
(1 -3.182006901e-16 -3.020076759e-16)
(1 -8.85558486e-17 -2.648683206e-16)
(1 -2.522822089e-16 -2.018587911e-16)
(1 1.563647747e-16 -5.728404603e-16)
(1 3.183046046e-17 3.616835125e-16)
(1 -2.775361388e-16 1.969454111e-16)
(1 -2.158550936e-16 3.12629626e-17)
(1 -2.072074151e-16 5.428291808e-18)
(1 -2.296356428e-16 -1.946234489e-16)
(1 -1.312909185e-16 -3.471212964e-17)
(1 -1.649013994e-16 -1.294537067e-16)
(1 1.028540124e-16 -3.175260074e-16)
(1 1.478121321e-16 -2.073045234e-16)
(1 8.490154959e-17 1.171621206e-16)
(1 -5.852261629e-17 2.844107502e-16)
(1 -2.233638397e-16 -8.812646588e-17)
(1 -3.738831484e-16 -9.166133355e-17)
(1 -1.482410585e-16 -1.878721052e-16)
(1 -1.848317755e-16 -3.496783205e-17)
(1 -1.056359264e-16 -1.354625625e-16)
(1 6.214961634e-17 -2.05080098e-16)
(1 1.347300148e-16 3.270931046e-17)
(1 2.326450568e-16 2.496162054e-17)
(1 -1.858874296e-17 3.797496601e-16)
(1 5.327540091e-17 1.019485653e-16)
(1 -1.518763755e-16 -8.537672242e-17)
(1 -1.021093521e-16 -3.691065901e-17)
(1 -1.003211967e-16 -7.627205534e-17)
(1 -1.04309582e-16 9.891654282e-17)
(1 -7.873332793e-17 -5.008023187e-17)
(1 -1.565194479e-19 -1.669544368e-16)
(1 -1.64498402e-16 1.57658785e-16)
(1 2.897278579e-16 -1.693282602e-16)
(1 1.632566819e-17 -8.751396224e-17)
(1 1.369531393e-16 -1.19373315e-16)
(1 -1.086712918e-16 -3.157214075e-16)
(1 -1.526104826e-16 -6.766984966e-17)
(1 -2.018599569e-16 -2.865903813e-16)
(1 -3.347744633e-16 -2.69227136e-16)
(1 -1.760555095e-16 -3.549449957e-16)
(1 -5.431196707e-16 -4.433849059e-16)
(1 -3.803027076e-16 -4.869039949e-16)
(1 -3.803779071e-16 -3.133564705e-16)
(1 -4.326127582e-16 -4.063709417e-16)
(1 -5.729921018e-16 -6.124937063e-16)
(1 -7.176227534e-16 -6.496120941e-16)
(1 -6.142334776e-16 -2.176667599e-16)
(1 -5.241284154e-16 -2.921807174e-16)
(1 -4.393685495e-16 -2.023923071e-16)
(1 -6.015607979e-16 -2.481899314e-16)
(1 -2.788910956e-16 -3.432623405e-16)
(1 -6.059580541e-16 -1.468569892e-16)
(1 -5.012612021e-16 -3.429187885e-16)
(1 -5.145706576e-16 -1.72134104e-16)
(1 -7.228066726e-16 -2.386934261e-16)
(1 -1.688425507e-16 -1.913433649e-16)
(1 -4.005755529e-16 -2.951175378e-16)
(1 -4.066139188e-16 2.493301067e-17)
(1 -3.621249331e-16 4.732856134e-18)
(1 -2.426658624e-16 -1.670141684e-16)
(1 -4.896588188e-16 -3.433022677e-16)
(1 -5.000097341e-16 -4.499785196e-16)
(1 -3.923412331e-16 5.589487311e-18)
(1 -2.312752378e-16 1.551755348e-17)
(1 -4.586602416e-16 2.241263502e-17)
(1 -5.122942899e-16 1.692519155e-17)
(1 -1.706964875e-16 -2.401709622e-16)
(1 -2.102329762e-16 -3.510253933e-16)
(1 -3.346155053e-16 -3.417244801e-16)
(1 -1.401091845e-16 -5.458326559e-16)
(1 -2.415511321e-16 3.07298478e-16)
(1 -3.796134759e-16 3.100344118e-16)
(1 -2.125276438e-16 1.013029078e-16)
(1 -1.776996757e-16 3.774153804e-17)
(1 -2.397047581e-16 -1.015231532e-16)
(1 -1.691477562e-16 -1.103273859e-17)
(1 -1.775176407e-16 -3.984305429e-16)
(1 -1.521952119e-16 -5.07477954e-16)
(1 7.455410475e-17 -3.429895667e-16)
(1 1.606555855e-16 1.135897821e-16)
(1 -2.750144227e-16 2.507351373e-16)
(1 -2.695793756e-16 -3.437785555e-17)
(1 -2.509439638e-16 -7.518375385e-17)
(1 -1.9592116e-16 -1.835786097e-16)
(1 -2.054354686e-16 2.177565855e-17)
(1 -1.554562175e-16 -1.134082848e-16)
(1 -5.304342932e-17 -3.424672045e-16)
(1 4.738163036e-17 -2.575840578e-16)
(1 1.16610625e-16 -2.726329239e-16)
(1 -3.33366384e-16 3.074222492e-16)
(1 1.149899892e-17 1.988571464e-17)
(1 -6.425347349e-17 -6.798023481e-17)
(1 -1.771677345e-16 2.582072474e-17)
(1 -1.785550223e-16 -1.24969219e-16)
(1 -1.669592353e-16 5.236067258e-18)
(1 -1.112381984e-16 -4.886069198e-17)
(1 -3.608422821e-17 -1.391474716e-16)
(1 -1.012087958e-16 5.785149098e-17)
(1 3.057194629e-16 -1.728118622e-16)
(1 6.470117052e-17 -2.331129547e-16)
(1 -1.926000995e-16 2.375007166e-16)
(1 -5.291154039e-17 8.219419274e-17)
(1 -2.278798162e-16 -1.599053006e-16)
(1 2.042909438e-17 -9.105261212e-17)
(1 -2.153212107e-16 1.624377231e-16)
(1 2.636195692e-17 -6.726683558e-17)
(1 -1.681567396e-17 1.605032541e-17)
(1 -1.393233335e-16 -1.47912831e-16)
(1 -4.351358027e-17 -1.960330765e-16)
(1 -1.814276212e-16 8.182603954e-18)
(1 -3.059699059e-17 -5.760956337e-17)
(1 2.735121508e-16 -2.303046259e-16)
(1 -3.080297755e-17 -3.949928319e-16)
(1 -8.036938246e-17 -3.756507398e-16)
(1 -1.210512299e-16 -1.358993427e-16)
(1 -2.818511161e-16 -1.621712283e-16)
(1 -1.972313563e-16 -2.447153224e-16)
(1 -7.023793507e-17 -9.145998986e-17)
(1 -3.396758881e-16 -2.391270504e-16)
(1 -2.090588902e-16 -3.733163441e-16)
(1 -2.280899149e-16 -2.318550519e-16)
(1 -2.287056092e-16 -3.480732916e-16)
(1 -5.569821263e-16 -4.494797295e-16)
(1 -5.940194434e-16 -5.412782814e-16)
(1 -3.639261361e-16 -2.992028691e-16)
(1 -4.045250497e-16 -3.268199653e-16)
(1 -3.186319961e-16 -1.386226145e-16)
(1 -6.880778012e-16 -2.649016407e-16)
(1 -3.181527657e-16 -4.798890729e-16)
(1 -6.745577325e-16 -2.483804165e-16)
(1 -5.08926042e-16 -3.762867732e-16)
(1 -4.32596464e-16 -2.051780331e-16)
(1 -6.279029343e-16 -2.140682494e-16)
(1 -2.427765819e-16 -2.903878154e-16)
(1 -3.654819739e-16 -2.779221999e-16)
(1 -2.290931424e-16 5.482033536e-17)
(1 -5.036593207e-16 8.295816554e-17)
(1 -3.741311987e-16 -2.241932602e-16)
(1 -6.890186873e-16 -3.951170962e-16)
(1 -6.663313028e-16 -6.145102111e-16)
(1 -6.857319394e-16 -4.247932529e-16)
(1 -3.005053529e-16 -2.170117586e-16)
(1 -5.289844077e-16 -1.531279852e-16)
(1 -4.836415965e-16 2.886882357e-17)
(1 -2.505105934e-16 -1.930472571e-16)
(1 -3.975486515e-16 -4.391926904e-16)
(1 -5.722418278e-16 -3.504394025e-16)
(1 -3.456970261e-16 -6.844790039e-16)
(1 -6.718700645e-16 2.010850953e-16)
(1 -3.557103195e-16 -1.329275935e-16)
(1 -2.88087144e-16 -1.502194096e-17)
(1 -3.154875158e-16 1.081112345e-16)
(1 -2.417544193e-16 -3.865385384e-17)
(1 -1.37842364e-16 -1.681786276e-16)
(1 -1.689989683e-16 -4.05207528e-16)
(1 -3.196241423e-16 -4.653076562e-16)
(1 -9.205517179e-17 -5.873273851e-16)
(1 3.174084566e-17 2.426598611e-16)
(1 -3.79297582e-16 1.650576981e-16)
(1 -4.293907337e-16 7.574025209e-18)
(1 -3.151396057e-16 8.551782236e-18)
(1 -2.292610944e-16 -2.254723026e-16)
(1 -3.444815876e-16 -7.56388849e-17)
(1 -1.593265366e-16 -2.341727422e-16)
(1 -1.28994168e-16 -4.556811025e-16)
(1 -9.266301306e-17 -3.8713283e-16)
(1 1.062633582e-16 -3.997161613e-16)
(1 -3.892783818e-16 2.022006315e-16)
(1 4.699103928e-17 3.685427183e-17)
(1 -1.182946796e-16 8.481359512e-17)
(1 -2.134837303e-16 -3.152270561e-18)
(1 -2.320948949e-16 -1.634140375e-16)
(1 -1.695343344e-16 3.614281766e-17)
(1 -1.548356948e-16 -1.251667616e-16)
(1 -1.058400538e-16 -2.138315578e-16)
(1 -5.586413868e-17 -1.8869064e-16)
(1 1.241358728e-16 -1.924399477e-16)
(1 1.740220839e-16 -2.223525868e-16)
(1 -2.034744877e-16 3.870618239e-16)
(1 -6.840689236e-17 1.028982238e-16)
(1 -9.846306614e-17 -3.951470361e-17)
(1 -1.678389342e-17 7.917879585e-18)
(1 -1.364945074e-16 3.421487528e-18)
(1 -1.796658229e-16 2.931470566e-17)
(1 -5.837729051e-17 -1.784360719e-17)
(1 -7.227371406e-17 -1.38123496e-16)
(1 -2.126632218e-17 -1.219517036e-16)
(1 -5.481012189e-17 -5.203315419e-17)
(1 9.482258494e-17 -1.3092959e-16)
(1 3.468045651e-16 -2.402399007e-16)
(1 -7.009170346e-17 4.7358344e-16)
(1 -9.13487454e-17 1.38620709e-17)
(1 -8.461717899e-17 7.391383695e-18)
(1 1.500678759e-16 2.886943541e-16)
(1 1.768265759e-16 8.567894175e-17)
(1 2.932637211e-17 6.344167912e-18)
(1 -1.483621342e-16 4.850613913e-17)
(1 -8.197277874e-18 -2.621336441e-16)
(1 -1.570522665e-16 -6.453342964e-17)
(1 -2.259506796e-16 -6.750903808e-17)
(1 -5.447352038e-17 -2.305631326e-16)
(1 1.770876975e-16 4.35965315e-17)
(1 3.841303447e-16 3.448124693e-17)
(1 -2.38930314e-16 -7.968329854e-16)
(1 -2.202401387e-16 -4.735681332e-16)
(1 -1.042742771e-16 -4.297484347e-16)
(1 -3.879101075e-16 -2.458465801e-16)
(1 -2.379742903e-16 -3.945215182e-16)
(1 -1.26974714e-16 -1.604564534e-16)
(1 -1.728276483e-16 -2.039710702e-16)
(1 -2.420709903e-16 -1.933339627e-16)
(1 -2.382224664e-16 -2.167877074e-16)
(1 -2.252683539e-16 -3.602615426e-16)
(1 -3.771176717e-16 -3.021205125e-16)
(1 -4.509842905e-16 -3.659585646e-16)
(1 -2.622375497e-16 -2.77889963e-16)
(1 -2.675323765e-16 -3.235529805e-16)
(1 -1.354773557e-16 -6.746880562e-17)
(1 -6.007290606e-16 -2.460612602e-16)
(1 -4.178374711e-16 -4.01553373e-16)
(1 -4.724370532e-16 -3.033659969e-16)
(1 -3.454508202e-16 -2.63207462e-16)
(1 -2.458919423e-16 -2.241157687e-16)
(1 -5.474545395e-16 -9.746366327e-17)
(1 -3.776371695e-16 -1.376122697e-16)
(1 -3.03257797e-16 -3.176387028e-16)
(1 -2.760191278e-16 1.133804451e-17)
(1 -4.885743343e-16 -3.213989776e-17)
(1 -3.306660377e-16 -8.121178029e-17)
(1 -4.444986831e-16 -3.303183675e-16)
(1 -5.612878516e-16 -3.25722153e-16)
(1 -8.364837787e-16 -4.453874183e-16)
(1 -4.099604331e-16 -3.13703584e-16)
(1 -5.383438267e-16 -1.771078408e-16)
(1 -3.336697553e-16 -1.412601152e-16)
(1 -4.08561827e-16 -1.510285034e-16)
(1 -4.786482246e-16 -2.505738751e-16)
(1 -5.512263196e-16 -3.65530173e-16)
(1 -4.277674171e-16 -6.738672447e-16)
(1 -8.104189889e-16 1.769742098e-16)
(1 -3.702787563e-16 -3.824913109e-16)
(1 -2.607636663e-16 -4.562371142e-17)
(1 -4.516286972e-16 1.563563739e-17)
(1 -3.557320502e-16 -9.73023045e-17)
(1 -3.07243365e-16 -3.395552541e-16)
(1 -2.283566516e-16 -4.175348722e-16)
(1 -4.313891451e-16 -4.293742075e-16)
(1 -2.038139839e-16 -7.031168657e-16)
(1 -3.489975679e-16 2.162677764e-16)
(1 -3.969299206e-16 8.275566925e-18)
(1 -4.214288215e-16 -8.941045649e-17)
(1 -3.484530773e-16 -1.241874613e-17)
(1 -5.071489256e-16 -1.333868919e-16)
(1 -4.164320395e-16 -3.526304943e-16)
(1 -1.251645582e-16 -3.888281156e-16)
(1 -2.277799609e-16 -4.634965399e-16)
(1 -2.45280651e-16 -4.461985652e-16)
(1 -5.360255956e-17 -5.182252613e-16)
(1 -2.099674368e-16 1.957516996e-16)
(1 -6.66111722e-17 2.032089529e-16)
(1 -3.921686381e-16 1.249067551e-16)
(1 -3.771115756e-16 -1.865765388e-16)
(1 -4.253259033e-16 -2.804839078e-16)
(1 -3.360408272e-16 -8.65399238e-17)
(1 -3.479855762e-16 -3.814696959e-16)
(1 -1.426293247e-16 -4.25986591e-16)
(1 -7.084517209e-17 -2.740574515e-16)
(1 -6.031741692e-17 -3.101726406e-16)
(1 1.565778844e-16 -2.219764783e-16)
(1 -1.740907799e-16 3.535651321e-16)
(1 -1.597854402e-16 -4.435559307e-17)
(1 -1.553975065e-16 5.073793868e-17)
(1 -1.741650576e-16 8.653201538e-18)
(1 -2.053292978e-16 -2.095633428e-16)
(1 -2.728350781e-16 -2.62826139e-17)
(1 -2.180356774e-16 -1.16373471e-16)
(1 -2.26759117e-16 -1.708785565e-16)
(1 7.261310168e-19 -2.00713415e-16)
(1 -1.051190211e-17 -1.174339313e-16)
(1 1.903167706e-16 -1.577248843e-16)
(1 2.168575134e-16 -1.431436822e-16)
(1 1.058055348e-16 3.815549467e-16)
(1 -1.526356274e-16 2.567973197e-16)
(1 -1.179068091e-16 6.185199318e-17)
(1 1.502191435e-16 2.447673839e-16)
(1 1.693701439e-16 5.823416582e-17)
(1 2.964456273e-17 -1.415375187e-17)
(1 -2.011824965e-16 8.280281971e-17)
(1 -3.894085896e-17 -1.605574441e-16)
(1 -1.290306808e-16 -9.689171819e-18)
(1 -1.205019113e-16 -5.276811872e-17)
(1 1.861525871e-17 -1.947037572e-16)
(1 3.266344955e-16 -8.523440528e-17)
(1 2.361367416e-16 9.936386492e-17)
(1 2.507349136e-16 2.075431446e-16)
(1 -1.399581538e-16 4.917798903e-16)
(1 1.826970645e-16 -1.249857548e-16)
(1 -3.254045483e-17 2.319636867e-16)
(1 1.0620679e-16 -1.723100316e-17)
(1 -1.693853409e-16 -1.042281193e-16)
(1 -2.457964912e-16 -7.59361313e-17)
(1 -7.780549113e-17 1.284738163e-17)
(1 1.348839136e-16 -1.806275909e-16)
(1 -9.803656027e-17 -2.579721847e-17)
(1 -7.531159917e-17 9.222010573e-18)
(1 -1.376864179e-16 1.852840776e-16)
(1 4.472996716e-16 -7.77685838e-17)
(1 2.444684348e-16 1.594532509e-16)
(1 -3.852543192e-16 -9.615012705e-16)
(1 -4.48752505e-16 -7.191789863e-16)
(1 -1.483904862e-16 -7.385710663e-16)
(1 -5.0251821e-16 -3.58914904e-16)
(1 -1.978991803e-16 -5.954871911e-16)
(1 -2.192373366e-16 -3.572409884e-16)
(1 -2.489430013e-16 -2.201846961e-16)
(1 -3.355260787e-16 -2.648081298e-16)
(1 -2.386231242e-16 -3.09197524e-16)
(1 -2.336148446e-16 -3.823151515e-16)
(1 -2.862296429e-16 -1.975130927e-16)
(1 -2.904378475e-16 -2.20543892e-16)
(1 -2.483898959e-16 -1.782661291e-16)
(1 -2.714845601e-16 -4.224760109e-16)
(1 -1.259645059e-16 -2.48906327e-16)
(1 -3.759820995e-16 -2.145408171e-16)
(1 -4.059545709e-16 -3.218139511e-16)
(1 -3.051497905e-16 -2.852602018e-16)
(1 -2.674839362e-16 -2.618986658e-16)
(1 -1.576105906e-16 -1.809952286e-16)
(1 -3.509955705e-16 6.042458897e-18)
(1 -3.433517928e-16 -7.2046068e-17)
(1 -3.171143034e-16 -2.357626301e-16)
(1 -2.646714094e-16 -1.193628158e-16)
(1 -4.192647268e-16 -1.982355386e-16)
(1 -2.707110731e-16 -1.241994587e-17)
(1 -2.464991026e-16 -2.095106286e-16)
(1 -4.715358837e-16 -2.32265096e-16)
(1 -6.952162569e-16 -1.5541582e-16)
(1 -2.567330194e-16 -1.965880104e-16)
(1 -4.044059248e-16 -2.147071729e-16)
(1 -2.95340383e-16 -1.427563868e-16)
(1 -4.35469203e-16 -1.390793307e-16)
(1 -4.424293823e-16 -2.523181519e-16)
(1 -4.629004606e-16 -2.449203717e-16)
(1 -4.939083562e-16 -5.89940836e-16)
(1 -7.362304593e-16 1.432883681e-16)
(1 -4.36650113e-16 -2.715859472e-16)
(1 -2.294883337e-16 -5.342328695e-17)
(1 -4.51335995e-16 -1.665122582e-16)
(1 -4.490476226e-16 -1.533458776e-16)
(1 -4.512754814e-16 -4.166547473e-16)
(1 -3.819418049e-16 -2.636024935e-16)
(1 -3.401807804e-16 -4.312248688e-16)
(1 -3.187395751e-16 -6.726633678e-16)
(1 -6.060202831e-16 9.112162163e-17)
(1 -3.494261444e-16 7.435686236e-17)
(1 -4.05139266e-16 -1.75046733e-16)
(1 -3.216910615e-16 -8.300817979e-17)
(1 -6.329592721e-16 -6.193655754e-17)
(1 -3.710391357e-16 -4.990179539e-16)
(1 -3.539733971e-16 -3.813290219e-16)
(1 -4.710920205e-16 -4.031628604e-16)
(1 -2.878290483e-16 -6.361779771e-16)
(1 -2.475802641e-16 -6.382026765e-16)
(1 -3.031194067e-16 1.253370708e-16)
(1 -4.270392732e-16 1.624016278e-16)
(1 -3.781003659e-16 -6.23398574e-17)
(1 -4.177285742e-16 -9.057372126e-17)
(1 -4.75416714e-16 -2.508244048e-16)
(1 -5.369754234e-16 -2.618993621e-16)
(1 -3.38553076e-16 -4.557875288e-16)
(1 -1.83749869e-16 -4.68631371e-16)
(1 -2.052566394e-16 -5.095811021e-16)
(1 -2.651308053e-16 -4.124474405e-16)
(1 5.733776116e-17 -3.228894128e-16)
(1 -1.955278683e-16 2.646131449e-16)
(1 -2.447195302e-16 -1.550349665e-16)
(1 -3.278602197e-16 2.731479584e-16)
(1 -1.302223929e-16 -3.201847525e-17)
(1 -4.400300766e-16 -2.544145157e-16)
(1 -3.568706076e-16 -1.663160196e-16)
(1 -3.413131137e-16 -2.696399144e-16)
(1 -3.633259091e-16 -2.469746345e-16)
(1 3.792187637e-17 -2.989294371e-16)
(1 -4.575443815e-17 -1.935546676e-16)
(1 9.03806899e-17 -1.94532385e-16)
(1 1.673817458e-16 -8.239557621e-17)
(1 7.806431957e-17 1.827720896e-16)
(1 -1.727039223e-16 3.266777286e-16)
(1 -1.087015983e-16 -3.394278e-17)
(1 -8.425801166e-17 6.295434038e-17)
(1 -9.36100213e-17 -9.057481685e-17)
(1 -1.237528208e-16 2.99982731e-17)
(1 -2.418514401e-16 -8.419984743e-17)
(1 -1.219723599e-16 -1.714986745e-16)
(1 -1.278322186e-16 -3.866066546e-17)
(1 5.963022692e-17 -1.373034787e-16)
(1 1.97909487e-17 -7.896117505e-17)
(1 2.334893076e-16 -1.540694942e-16)
(1 1.635900586e-16 -5.96057789e-17)
(1 2.070559898e-16 1.277994648e-16)
(1 -1.576706889e-16 3.723022305e-16)
(1 3.82157815e-17 1.518916931e-17)
(1 -9.161286696e-18 6.991328488e-17)
(1 -7.428139243e-17 -1.27299202e-17)
(1 -3.236051909e-17 -9.683900352e-17)
(1 -2.550265831e-16 1.89086594e-17)
(1 -1.416708946e-16 -1.359301883e-16)
(1 -7.003701579e-17 -1.150279269e-16)
(1 -7.428113692e-17 2.00543489e-19)
(1 2.074853758e-17 -2.436936183e-17)
(1 4.167702478e-17 4.36825141e-17)
(1 3.602905183e-16 -1.673382755e-17)
(1 2.099599862e-16 1.891975935e-16)
(1 1.008847136e-16 6.766785631e-17)
(1 -1.338740764e-16 4.362760788e-16)
(1 3.201254718e-16 -8.137592638e-18)
(1 -8.612560708e-17 7.685604329e-17)
(1 -2.643136416e-16 -8.548758954e-17)
(1 -1.627040558e-17 -1.824667765e-16)
(1 -4.050126093e-17 -1.194329165e-16)
(1 -1.709646725e-16 -8.258002628e-17)
(1 -3.126189569e-17 1.124987727e-16)
(1 1.775576151e-16 -8.335827162e-19)
(1 -1.07302244e-16 1.163015063e-16)
(1 9.279754005e-17 1.951081334e-16)
(1 8.300309441e-17 -1.695280861e-17)
(1 1.239486747e-16 -1.455428326e-16)
(1 6.13295707e-17 2.270690231e-16)
(1 -6.534589633e-16 -9.154982581e-16)
(1 -5.161201152e-16 -8.189029666e-16)
(1 -2.366421109e-16 -8.429575371e-16)
(1 -6.841199188e-16 -6.058324518e-16)
(1 -2.637820155e-16 -9.431323896e-16)
(1 -4.47553654e-16 -6.170122455e-16)
(1 -4.33129167e-16 -3.040644973e-16)
(1 -4.052965778e-16 -4.419250865e-16)
(1 -2.378101857e-16 -5.145845494e-16)
(1 -2.446117691e-16 -4.007143569e-16)
(1 -3.253462246e-16 -2.325341873e-16)
(1 -2.836844033e-16 -2.165010761e-16)
(1 -2.503415179e-16 -1.833455168e-16)
(1 -2.453305363e-16 -4.611124022e-16)
(1 -1.744689479e-16 -3.515032268e-16)
(1 -2.679663381e-16 -1.159815566e-16)
(1 -2.444565665e-16 -2.01266253e-16)
(1 -1.973400144e-16 -2.496822108e-16)
(1 -2.918077129e-16 -2.986465598e-16)
(1 -1.7417987e-16 -2.100154944e-16)
(1 -1.970310154e-16 -1.344532253e-17)
(1 -1.464355985e-16 -2.220629697e-16)
(1 -3.518807386e-16 -2.234904246e-16)
(1 -2.560367602e-16 -1.781233472e-16)
(1 -3.449628986e-16 -2.67416563e-16)
(1 -2.139361795e-16 -1.071030459e-16)
(1 -2.853188201e-16 -2.121800365e-16)
(1 -3.813355393e-16 -1.289085829e-16)
(1 -4.86927723e-16 -1.377780262e-16)
(1 -2.321642821e-16 -1.315116838e-16)
(1 -3.441753653e-16 -1.370725877e-16)
(1 -2.31809812e-16 -1.603981952e-16)
(1 -3.591619953e-16 -1.055562891e-16)
(1 -2.543548364e-16 -2.586828417e-16)
(1 -4.300615461e-16 -1.972278701e-16)
(1 -4.89233987e-16 -4.392253551e-16)
(1 -6.874373963e-16 1.199096863e-16)
(1 -5.045499723e-16 -1.42024559e-16)
(1 -1.54444652e-16 -1.500071051e-16)
(1 -4.739053841e-16 -9.895421338e-17)
(1 -3.724254206e-16 -1.009137057e-16)
(1 -4.860337581e-16 -3.933950348e-16)
(1 -4.108198899e-16 -3.28495805e-16)
(1 -3.924613114e-16 -3.945199965e-16)
(1 -2.931975544e-16 -6.462024596e-16)
(1 -5.640657137e-16 1.361994338e-16)
(1 -2.41474896e-16 1.353936583e-16)
(1 -3.935140519e-16 -1.324197698e-16)
(1 -3.419196166e-16 -9.001196915e-17)
(1 -4.912376142e-16 -1.266279677e-16)
(1 -3.133327629e-16 -3.621935593e-16)
(1 -5.117275663e-16 -2.736768425e-16)
(1 -4.031355078e-16 -4.839146935e-16)
(1 -3.10699777e-16 -5.805425719e-16)
(1 -3.032565378e-16 -6.400377781e-16)
(1 -6.346577713e-16 2.638729781e-16)
(1 -5.407398486e-16 5.014243205e-17)
(1 -3.927702228e-16 -1.39629692e-16)
(1 -4.695176824e-16 -2.257258569e-17)
(1 -3.06118444e-16 -1.094939993e-16)
(1 -4.943526505e-16 -3.546338823e-16)
(1 -3.983596574e-16 -4.345730807e-16)
(1 -3.652296444e-16 -5.210153551e-16)
(1 -3.422246878e-16 -5.981130088e-16)
(1 -3.451992909e-16 -4.656838419e-16)
(1 1.575524207e-17 -3.584182833e-16)
(1 -2.587979189e-16 1.974740199e-16)
(1 -3.658242387e-16 -4.183317422e-17)
(1 -3.934656075e-16 2.604982482e-16)
(1 -4.94149054e-17 -5.232313003e-17)
(1 -4.511358537e-16 -6.901729449e-17)
(1 -2.512356502e-16 -2.382879813e-16)
(1 -3.887939927e-16 -2.474266782e-16)
(1 -2.50552536e-16 -1.617106882e-16)
(1 1.498917813e-16 -3.390967497e-16)
(1 -1.364360577e-16 -3.00182633e-16)
(1 -2.715243835e-17 -2.007202348e-16)
(1 1.35461032e-16 -1.030731034e-16)
(1 -6.405131549e-17 9.464269447e-17)
(1 -2.997087755e-16 1.725972355e-16)
(1 -2.352883252e-16 -1.025150684e-16)
(1 -3.028039873e-16 -3.059188018e-17)
(1 -2.348853063e-16 -1.996522579e-16)
(1 -2.875426932e-16 -8.760904255e-19)
(1 -3.15761053e-16 -2.484257266e-16)
(1 -2.192530012e-16 -1.989647189e-16)
(1 -1.323004603e-16 -1.425768566e-16)
(1 1.652818556e-17 -2.221366693e-16)
(1 1.331805614e-17 -7.304085052e-17)
(1 1.039442984e-16 1.017970668e-18)
(1 2.248951495e-16 -7.917600548e-17)
(1 -1.684602818e-16 1.929980746e-16)
(1 -7.723327843e-17 1.243820411e-16)
(1 2.795643652e-17 1.019884544e-16)
(1 -1.038518207e-16 8.248448156e-17)
(1 -9.571265338e-17 -9.677704447e-17)
(1 -8.418204517e-17 4.824854594e-17)
(1 -1.077452891e-16 2.337118519e-17)
(1 -1.260768269e-16 -6.965907325e-17)