/*--------------------------------*- C++ -*----------------------------------*\
| =========                 |                                                 |
| \\      /  F ield         | OpenFOAM: The Open Source CFD Toolbox           |
|  \\    /   O peration     | Version:  2212                                  |
|   \\  /    A nd           | Website:  www.openfoam.com                      |
|    \\/     M anipulation  |                                                 |
\*---------------------------------------------------------------------------*/
FoamFile
{
    version     2.0;
    format      ascii;
    arch        "LSB;label=32;scalar=64";
    class       volScalarField;
    location    "2";
    object      p;
}
// * * * * * * * * * * * * * * * * * * * * * * * * * * * * * * * * * * * * * //

dimensions      [0 2 -2 0 0 0 0];

internalField   nonuniform List<scalar> 
42875
(
-1.031043732e-15
-1.178783255e-15
-1.136542764e-15
-1.849603887e-15
-1.379015106e-15
-1.186420062e-15
-1.546959988e-15
-8.231419746e-16
-1.506699166e-15
-1.164833036e-15
-1.094571734e-15
-1.194410399e-15
-1.232324221e-15
-1.367194971e-15
-1.549787304e-15
-1.250850017e-15
-3.104400248e-16
-1.554353324e-15
-1.443158831e-15
-1.191723421e-15
-1.114445757e-15
-8.71726053e-16
-1.683618449e-16
-1.375851011e-15
-1.058965292e-15
-1.428337855e-15
-8.442697043e-16
-1.675404967e-15
-1.284321114e-15
-1.70541094e-15
-2.291381746e-16
-1.497918388e-15
-1.188956783e-15
-2.072158545e-15
-9.009358558e-16
-1.592855996e-15
-1.16503894e-15
-3.827820889e-16
-8.036501039e-16
-6.452073841e-16
-9.721355783e-16
-1.09969085e-15
-1.030390168e-15
-1.039273365e-15
-2.009607798e-15
-1.2556157e-15
-9.452536097e-16
-1.430068394e-15
-1.493820065e-15
-1.918885405e-15
-3.746189905e-16
-1.12646623e-15
-1.395217371e-15
-1.202599887e-15
-1.789599719e-15
-8.541231731e-16
-2.079352725e-15
-1.376176298e-15
-1.3883695e-15
-7.271056729e-16
-6.233785051e-16
-6.639548779e-16
-9.433104938e-16
-7.330047557e-16
-8.320722923e-16
-1.501952099e-15
-1.087308066e-15
-1.147961211e-15
-7.693436579e-16
-1.250732138e-15
-1.922606796e-15
-9.373817828e-16
-1.360094649e-15
-9.393765394e-16
-1.113088564e-15
-1.586408885e-15
-2.331893463e-15
-9.335334937e-16
-1.5510224e-15
-9.959267396e-16
-1.273869594e-15
-1.446439747e-15
-1.863715366e-15
-1.545102228e-15
-1.99016692e-15
-1.666124053e-15
-1.715619544e-15
-1.258352277e-15
-9.431898599e-16
-1.484766924e-15
-4.407086696e-16
-3.632179793e-16
-7.492051165e-16
-1.800280573e-16
-7.471102615e-16
-8.502839707e-16
-6.846297252e-16
-1.125860353e-15
-1.309165137e-15
-6.270206815e-16
-1.092799526e-15
-1.063572475e-15
-1.327296034e-15
-1.687174447e-15
-2.12482285e-15
-1.366854991e-15
-7.845732442e-16
-1.068185873e-15
-1.429672244e-15
-1.689793245e-15
-1.697185777e-15
-1.896819706e-15
-7.970059162e-16
-1.195167321e-15
-1.035702603e-15
-1.435135393e-15
-1.987569402e-15
-1.643244314e-15
-2.256308623e-15
-1.174093942e-15
-1.021660434e-15
-1.691320475e-15
-1.919005433e-15
-1.670484125e-15
-1.378846481e-15
-1.739305513e-15
-7.045886333e-16
-9.718939946e-16
-9.979120237e-16
-1.218348421e-15
-6.283970114e-16
-3.310813732e-16
-4.989380903e-16
-5.885763638e-16
-9.28352994e-16
-7.063226172e-17
-5.231135909e-16
-7.425973334e-16
-9.89538669e-16
-1.222014507e-15
-2.171717999e-15
-9.441288544e-16
-6.872718528e-16
-9.161814073e-16
-1.421773821e-15
-1.422500005e-15
-1.700640643e-15
-2.08429947e-15
-1.108742081e-15
-1.166176584e-15
-1.055805461e-15
-8.598726049e-16
-1.464719011e-15
-1.601348956e-15
-2.041199129e-15
-2.211945705e-15
-1.125811569e-15
-1.095378378e-15
-1.23050296e-15
-1.426471409e-15
-1.53982294e-15
-2.051864964e-15
-2.334236672e-15
-2.418505724e-15
-1.747804727e-15
-5.19445912e-16
-1.349758196e-15
-1.100909947e-15
-1.742657441e-15
-1.460238882e-15
-1.73962005e-15
-1.100178049e-15
-1.173519754e-15
-1.297520678e-15
-1.928312808e-15
-6.08225645e-16
-5.933384851e-16
-1.400971632e-15
-8.566075826e-16
-2.069138808e-15
-2.188580882e-16
-2.576754645e-16
-5.85381771e-16
-6.300026617e-16
-7.344102533e-16
-1.112478522e-15
-8.282644407e-17
-2.513720588e-16
-5.412897856e-16
-9.634383336e-16
-9.068847244e-16
-1.584142226e-15
-1.636525152e-15
-2.012707985e-16
-1.010137436e-15
-6.789602053e-16
-7.36957904e-16
-1.416653322e-15
-1.828130107e-15
-1.874490245e-15
-2.37624969e-15
-8.349792462e-16
-9.840937005e-16
-1.403782716e-15
-1.094299324e-15
-1.191466552e-15
-1.734874768e-15
-1.863322854e-15
-1.996581952e-15
-2.167401372e-15
-4.034685686e-16
-1.393801974e-15
-1.10792284e-15
-1.409463853e-15
-1.07738122e-15
-9.272312237e-16
-1.804714415e-15
-1.942321018e-15
-2.565158684e-15
-2.161098338e-15
3.804047801e-16
-6.787249369e-16
-4.274930788e-16
-1.659460807e-15
-1.149973401e-15
-1.192747751e-15
-1.525279238e-15
-1.635016392e-15
-1.392190487e-15
-1.547735106e-15
-1.115453341e-15
-1.14900745e-15
-1.310028271e-15
-1.024580697e-15
-2.066003372e-15
-9.168232041e-16
-8.027568039e-16
-7.995435712e-16
-1.269147537e-15
-7.188028706e-16
-1.490563446e-15
3.190019434e-16
-1.159354604e-16
-5.726813075e-16
-3.169265428e-16
-6.367938897e-16
-1.174417637e-15
-1.012983817e-15
9.731546365e-17
-3.843654178e-16
-1.894453981e-16
-5.5371498e-16
-4.939389292e-16
-1.396663188e-15
-1.474438725e-15
-2.197749466e-15
3.561959638e-16
-5.42822114e-16
-8.096493047e-16
-7.57198248e-16
-9.317914216e-16
-1.52326052e-15
-1.610514804e-15
-1.787900764e-15
-1.982768709e-15
-1.117710075e-15
-5.941383357e-16
-8.397601458e-16
-1.281874264e-15
-1.317224823e-15
-1.74784889e-15
-2.0348775e-15
-2.012321199e-15
-1.90789606e-15
-2.111313412e-15
-4.512869449e-18
-1.517860781e-15
-1.557438543e-15
-8.172601682e-16
-1.210279244e-15
-9.737258004e-16
-1.564480221e-15
-2.118756675e-15
-1.908864947e-15
-2.684151488e-15
-3.178152473e-15
-2.816199942e-17
8.936671746e-17
-1.3772773e-16
-1.004812403e-15
-5.519607198e-16
-8.241772123e-16
-1.49628395e-15
-1.182589542e-15
-1.089891565e-15
-1.096423103e-15
-1.684471067e-15
-1.050970356e-15
-1.408941699e-15
-1.312638811e-15
-1.377089269e-15
-1.469431843e-15
-1.203820689e-15
-1.105596683e-15
-1.174770963e-15
-1.252588706e-15
-1.73254446e-15
2.83407974e-17
-8.83671832e-16
-1.27254765e-15
-6.573099151e-16
-1.305924673e-15
-1.215433661e-15
-1.252166414e-15
-6.998562745e-16
4.646160006e-17
-4.132681938e-16
-4.962868608e-16
-1.070715348e-16
-8.440401741e-16
-8.8709972e-16
-1.785921962e-15
1.848666598e-16
-3.237572189e-16
-2.303198298e-16
-3.142971907e-16
-7.162708668e-16
-9.136506543e-16
-1.16212282e-15
-1.53639654e-15
-1.941442876e-15
2.980040763e-17
-6.509426998e-16
-3.638472558e-16
-7.721451846e-16
-8.935025696e-16
-1.341452363e-15
-1.84456014e-15
-1.590621201e-15
-1.858732582e-15
-2.316601684e-15
-1.151140755e-15
-5.401271685e-16
-1.149911374e-15
-1.081542118e-15
-1.292877857e-15
-1.465044662e-15
-1.807662711e-15
-2.111521333e-15
-2.419304529e-15
-2.352514536e-15
-2.122864386e-15
-5.94868444e-16
-1.094848788e-15
-9.188832402e-16
-1.055229731e-15
-5.126940438e-16
-6.77476014e-16
-1.801429663e-15
-1.480697145e-15
-2.173270461e-15
-2.605426238e-15
-2.657587659e-15
-2.546052925e-15
-5.235619428e-16
-1.028939452e-16
1.336560996e-16
-1.571273376e-16
-2.42350731e-16
-4.522535159e-16
-1.236775444e-15
-4.993280943e-16
-1.013315676e-15
-7.982417507e-16
-1.105340656e-15
-8.91664152e-16
-9.783513193e-16
-1.014424303e-15
-1.242566896e-15
-1.746269321e-15
-8.223673981e-16
-1.462788127e-15
-1.395080916e-15
-1.142324719e-15
-1.266186816e-15
-8.490841978e-16
-1.098790544e-15
-1.240152317e-15
-1.075640446e-15
-1.60942784e-15
-1.306049964e-15
-2.033545375e-15
-1.020015634e-15
5.5714297e-18
-1.076316138e-15
-1.128658034e-15
-7.828178518e-16
-1.579142815e-15
-1.256550235e-15
-1.842949121e-15
-1.429916157e-16
-1.224540106e-16
-1.720052037e-16
2.776409868e-18
-1.416060004e-16
-6.352279941e-16
-7.730248683e-16
-1.565815187e-15
-1.378011309e-15
7.042513323e-16
1.95230026e-16
8.787519849e-17
-3.876459899e-16
-7.777532936e-16
-9.234147943e-16
-9.0465467e-16
-1.474526636e-15
-1.72517218e-15
-2.045002138e-15
-7.400942327e-17
-1.278341757e-16
-8.751472353e-17
-6.836441516e-16
-6.770277672e-16
-1.100729195e-15
-9.735294196e-16
-1.711161435e-15
-1.669914111e-15
-1.895788654e-15
-1.975916166e-15
-8.052772849e-16
-9.420099116e-16
-9.465611241e-16
-1.009443041e-15
-1.11298548e-15
-1.453703858e-15
-1.718681936e-15
-1.893480913e-15
-2.235085394e-15
-2.353867492e-15
-2.338460495e-15
-1.819399511e-15
-3.601351041e-16
-1.210617199e-15
-7.213094044e-16
-9.324426298e-16
-9.596856745e-16
-6.241719999e-16
-1.285932362e-15
-1.302000273e-15
-1.604915303e-15
-1.917283203e-15
-2.001095436e-15
-3.085544591e-15
-2.10453761e-15
-5.600436187e-16
-5.113304341e-16
-1.191265068e-16
2.355644886e-16
-7.414133811e-17
-2.96433479e-16
-6.355415451e-16
-3.713009201e-16
-4.477739564e-16
-5.347231615e-16
-6.469287623e-16
-1.137253971e-15
-9.916956427e-16
-1.121658891e-15
-1.202169417e-15
-9.57896551e-16
-9.96302113e-16
-1.115023898e-15
-1.111980739e-15
-1.380146299e-15
-1.366647034e-15
-1.120916667e-15
-1.003405548e-15
-7.928820495e-16
-1.183973505e-15
-1.204530405e-15
-9.833929988e-16
-1.797458488e-15
-7.146882791e-16
-6.337567374e-16
-1.341263177e-15
-8.475215249e-16
-1.054463215e-15
-1.576685489e-15
-1.189219584e-15
-1.674381624e-15
1.349439586e-16
-1.739745262e-16
-2.581297417e-16
-8.333629579e-16
-1.598918171e-15
-1.018405512e-15
-1.324743255e-15
-1.715821022e-15
-1.805728815e-15
1.007068325e-16
7.104125618e-17
-3.33670163e-16
-8.960184571e-17
-3.866542886e-17
-9.207611417e-16
-6.984960075e-16
-1.648987333e-15
-1.289109264e-15
-1.261622349e-15
5.357828031e-16
3.111369497e-16
6.669172424e-16
-3.34107258e-16
-4.077534832e-16
-7.437520374e-16
-9.641345125e-16
-1.212222616e-15
-1.326234673e-15
-1.422487056e-15
-1.743880492e-15
4.480860546e-17
-8.570198649e-17
-4.842779089e-17
-5.395701052e-16
-5.470895017e-16
-7.734572838e-16
-7.886093819e-16
-1.267962127e-15
-1.579352726e-15
-1.437417796e-15
-1.764250057e-15
-1.829107824e-15
-2.21536863e-16
-3.964345363e-16
-9.582579803e-16
-1.21510322e-15
-9.996896754e-16
-1.069577828e-15
-1.497383529e-15
-1.727574337e-15
-1.993888779e-15
-2.481864787e-15
-2.752991081e-15
-1.955027869e-15
-1.752663191e-15
-3.595550114e-16
-1.343080793e-15
-4.651708578e-16
-1.250013398e-15
-1.303485996e-15
-9.272169287e-16
-1.013954385e-15
-1.438839218e-15
-1.141573835e-15
-2.315358715e-15
-2.171504776e-15
-1.978466731e-15
-3.051284749e-15
-2.147135081e-15
3.587370394e-18
-5.325978364e-16
-4.172165116e-16
-2.573315558e-16
-3.836070213e-16
-1.216124138e-16
3.361293374e-16
5.117495226e-17
-8.354886002e-17
-4.564346899e-16
-7.549893564e-16
-8.063908468e-16
-5.35257433e-16
-9.780752642e-16
-8.741415377e-16
-4.656149266e-16
-6.766211271e-16
-1.001068956e-15
-9.389903756e-16
-1.449667464e-15
-1.173923164e-15
-7.711783879e-16
-6.750933278e-16
-9.059761461e-16
-1.07761381e-15
-1.593241989e-15
-1.226746791e-15
-1.431819205e-15
-1.058651825e-15
-7.678454051e-16
-7.059583596e-16
-8.584294237e-16
-1.400901448e-15
-1.374630301e-15
-1.055241704e-15
-1.661830945e-15
-5.578051065e-16
-8.202234615e-16
-9.955876697e-16
-9.878289971e-16
-1.078294689e-15
-1.380525505e-15
-1.526781454e-15
-1.826791227e-15
-1.758047951e-15
-4.944698478e-16
-2.565035605e-16
-7.715592589e-16
-3.719472158e-16
-5.387967212e-16
-1.545043233e-15
-8.305901671e-16
-1.774735433e-15
-1.547112303e-15
-1.921442753e-15
4.114312834e-16
2.006316696e-16
-4.554166934e-17
-5.186303241e-17
-1.056027353e-16
-5.633294679e-16
-9.961655312e-16
-1.510246759e-15
-1.538633987e-15
-1.374737886e-15
-7.389058149e-16
5.73097439e-16
5.809463361e-16
2.810669264e-16
1.383697897e-16
-7.015273935e-17
-1.805370521e-16
-3.717785166e-16
-1.500031236e-15
-1.052084706e-15
-1.249072271e-15
-1.168644017e-15
-1.808156117e-15
-2.848844965e-17
1.061104734e-16
-7.954960098e-17
-6.343571544e-16
-3.174322692e-16
-4.48886148e-16
-6.665680833e-16
-1.173353925e-15
-1.499627213e-15
-1.775902918e-15
-1.963002289e-15
-1.561508222e-15
-1.702028709e-15
-1.658753683e-16
-2.53384517e-16
-6.498208404e-16
-9.26482597e-16
-1.151683179e-15
-9.577846758e-16
-1.132442601e-15
-1.352734088e-15
-2.099546089e-15
-2.012550826e-15
-2.229690728e-15
-2.400772309e-15
-2.008779963e-15
-1.773048062e-15
-2.107538647e-16
-7.0290052e-16
-9.501453239e-16
-9.560058571e-16
-5.521551601e-16
-7.593244232e-16
-1.335031649e-15
-6.918675843e-16
-1.480617849e-15
-1.38072842e-15
-1.418312445e-15
-2.209705773e-15
-2.35661184e-15
-2.462501121e-15
-2.250315009e-15
3.443225903e-16
1.744687327e-16
-1.806464721e-16
-1.085085162e-16
-2.064894301e-16
4.8668743e-17
4.860063255e-16
-1.682812048e-16
-4.402659696e-16
-2.833058426e-16
1.910865147e-16
2.927279539e-16
-1.358279344e-16
-6.178833293e-16
-1.051802097e-15
-2.892120894e-16
-7.68581974e-16
-5.460210565e-16
-8.07489983e-16
-1.144377165e-15
-1.046884544e-15
-3.468900302e-16
-7.817376691e-16
-7.88171306e-16
-6.274428434e-16
-1.181184006e-15
-1.386163388e-15
-1.097010332e-15
-7.992405535e-16
-6.672638784e-16
-7.298509514e-16
-1.063439387e-15
-1.219889752e-15
-1.181823613e-15
-1.174999321e-15
-1.417181626e-15
-1.158703271e-15
-8.142573103e-16
-5.717312668e-16
-5.377317673e-16
-6.564208757e-16
-1.041146321e-15
-1.161411933e-15
-1.099515977e-15
-1.415035964e-15
-5.794753692e-16
-5.444791172e-16
-1.082633592e-15
-6.910028796e-16
-8.728766438e-16
-1.189534465e-15
-9.460050194e-16
-1.605383062e-15
-1.298520969e-15
-1.755023751e-15
-1.015382107e-16
-1.538945184e-16
-4.81580497e-16
-5.209913381e-16
-4.04982428e-16
-5.979936142e-16
-9.121114394e-16
-1.535176778e-15
-1.714871921e-15
-1.763411837e-15
-1.209826134e-15
6.11548088e-16
6.389916412e-16
-9.332210812e-17
-1.173158006e-16
-2.686017533e-16
-4.256991997e-16
-8.346076101e-16
-1.293313686e-15
-1.382096263e-15
-1.394699014e-15
-9.368380468e-16
-9.669827773e-16
3.673762345e-16
5.711847667e-16
4.721014183e-16
-3.162040874e-16
-1.421595728e-16
-5.92229211e-16
-3.018547445e-16
-7.617076707e-16
-1.398200724e-15
-1.21477312e-15
-1.017187536e-15
-1.360806561e-15
-1.740093403e-15
-9.035128012e-17
3.851699151e-16
-2.313909676e-16
-2.62867491e-16
-1.374354001e-17
-8.030840426e-17
-6.356994535e-16
-9.916045724e-16
-1.298572031e-15
-1.526557941e-15
-2.000605397e-15
-1.884212423e-15
-1.360476901e-15
-1.589835118e-15
-2.000914242e-16
-4.400577916e-16
-3.599423823e-16
-8.057847987e-16
-9.425017777e-16
-6.441180716e-16
-5.831637817e-16
-1.136629997e-15
-1.319685052e-15
-1.892796458e-15
-2.169345729e-15
-2.356897643e-15
-2.432476372e-15
-2.01868538e-15
-1.680411712e-15
-1.916896508e-17
-2.643713936e-16
-1.109072991e-15
-3.937891201e-16
-7.844030157e-16
-6.418558683e-16
-1.361530356e-15
-6.287863963e-16
-3.21188953e-16
-2.100962082e-15
-1.614103462e-15
-2.063025938e-15
-2.478229486e-15
-1.842391872e-15
-2.173784736e-15
-1.92577986e-15
4.939837057e-16
3.657357626e-16
2.500472956e-16
1.266076446e-17
9.040205436e-17
1.836267903e-16
-6.875855964e-18
1.613741775e-16
-6.346559213e-17
-5.426189944e-17
4.102247982e-16
3.910881137e-16
-1.649632108e-16
-5.215284827e-16
-8.394350191e-16
3.20752259e-16
2.104045155e-16
3.948404349e-16
-4.386807274e-16
-8.842046105e-16
-7.349610412e-16
-1.375044881e-16
-4.879726976e-16
-5.225324915e-16
-7.532676131e-16
-1.101054637e-15
-1.352320366e-15
-8.641889205e-16
-4.480523912e-16
-5.293794946e-16
-8.50686302e-16
-7.980390163e-16
-1.137200379e-15
-1.200394063e-15
-1.628192382e-15
-4.848629189e-16
-7.18769852e-16
-5.02832716e-16
-3.842559173e-16
-7.507941484e-16
-1.120888946e-15
-7.205136244e-16
-1.369792636e-15
-1.363476513e-15
-1.176593906e-15
-6.66924938e-16
-4.061444105e-16
-8.727783277e-16
-4.330085269e-16
-6.540150841e-16
-7.641086796e-16
-1.021821777e-15
-1.431677932e-15
-1.162418203e-15
-1.140714848e-15
-5.519914951e-16
-9.461540075e-16
-4.979689093e-16
-4.613957987e-16
-4.449281938e-16
-7.414451336e-16
-1.169833401e-15
-1.195167854e-15
-1.401331129e-15
-1.49441925e-15
-1.569897566e-15
-7.335864572e-16
2.969169677e-17
-3.982482682e-16
-6.121101661e-16
-8.208884416e-16
-6.825889759e-16
-8.746144389e-16
-1.294461488e-15
-1.376489285e-15
-1.539714437e-15
-1.362988441e-15
-1.454384427e-15
6.615234701e-16
4.497417145e-16
5.86361152e-17
-3.06539585e-17
-1.476785546e-16
-6.321706251e-16
-6.54421652e-16
-1.195566782e-15
-1.121338895e-15
-1.053848518e-15
-1.021489305e-15
-9.539459384e-16
-1.166301972e-15
4.947262749e-16
5.164538208e-16
4.612036294e-16
1.728252305e-16
-7.328274033e-17
-2.130427663e-16
-3.562342607e-16
-5.518366539e-16
-9.548637789e-16
-7.034779083e-16
-9.979944066e-16
-1.22727373e-15
-1.067283161e-15
-1.015990563e-15
2.208328993e-16
1.228582478e-16
-6.946882348e-17
1.902049111e-17
-1.853643202e-16
-1.240080036e-16
-2.216614261e-16
-6.520837426e-16
-7.954155251e-16
-1.391235975e-15
-1.914838902e-15
-1.904102605e-15
-1.386234564e-15
-1.48557757e-15
-1.429159862e-15
-1.336386241e-16
-7.197147819e-16
-2.228969384e-16
-4.934730307e-16
-7.470670509e-16
-7.946629785e-16
-5.728320953e-16
-1.140216644e-15
-1.414426609e-15
-1.569571082e-15
-1.784709677e-15
-1.920193322e-15
-2.17217621e-15
-2.312149363e-15
-1.997670383e-15
-1.805091236e-15
3.124196617e-16
-4.445738822e-17
-7.242087236e-16
-7.850739805e-16
-9.46523208e-16
-7.203631964e-16
-1.463629791e-15
-5.164277364e-16
-5.402681334e-16
-7.19610787e-16
-2.111901149e-15
-1.374397788e-15
-2.311631184e-15
-2.260577294e-15
-1.981387163e-15
-2.177320147e-15
-1.471392649e-15
2.501037371e-16
5.853483321e-16
2.914801163e-16
4.186310328e-17
6.216776712e-16
2.864752765e-16
6.836969094e-17
4.0020526e-16
1.590848436e-16
-1.280945642e-17
3.54230006e-16
-7.27367122e-17
3.034050746e-16
-3.610336744e-16
-4.841244042e-16
2.101443656e-16
3.791421967e-16
5.656105295e-16
-3.744687652e-16
-5.292388032e-16
-9.936830295e-16
3.847759715e-16
5.213587338e-16
2.076046332e-16
-3.04067844e-16
-6.466110548e-16
-6.437670199e-16
-8.835090589e-16
5.946295648e-16
-1.777391389e-16
-4.13620489e-16
-4.262554351e-16
-1.148584678e-15
-1.114093493e-15
-9.088671867e-16
-3.117097504e-16
-3.295662409e-16
-1.138739601e-16
-5.454342965e-16
-7.504406886e-16
-9.04524484e-16
-1.14217386e-15
-1.330108659e-15
-1.079200685e-15
-9.064117508e-16
-6.805855212e-16
-5.032990274e-16
-2.895986018e-16
-1.979466881e-16
-9.897152368e-16
-7.804126013e-16
-1.254420449e-15
-1.436998931e-15
-1.245897019e-15
-8.629459435e-16
-3.590685356e-16
-6.865598235e-16
-5.075041803e-16
-1.946583901e-16
-6.772552801e-16
-4.816578399e-16
-9.419398141e-16
-1.247104056e-15
-1.469920207e-15
-1.109242411e-15
-1.384421204e-15
-7.952921377e-16
-4.7985923e-16
-3.659504109e-16
-2.040871706e-16
-2.17587808e-16
-5.85008288e-16
-7.534896253e-16
-1.556018071e-15
-1.051946528e-15
-1.346068991e-15
-1.20084298e-15
-1.652714327e-15
-1.938466668e-16
-4.306976605e-19
-8.191171137e-17
-3.906675064e-17
-2.668786455e-16
-5.6635184e-16
-5.728322989e-16
-1.000113541e-15
-8.686486111e-16
-1.299468589e-15
-1.508155563e-15
-1.355891845e-15
-1.21441092e-15
7.207588468e-16
6.536531502e-16
5.841025577e-16
1.559751394e-16
9.539873882e-17
-2.586027006e-16
-2.816518304e-16
-8.550081747e-16
-9.945768441e-16
-1.119615623e-15
-1.111046459e-15
-9.526770731e-16
-1.161249303e-15
-8.876810222e-16
3.014364574e-16
7.388310247e-16
4.19868861e-16
2.661809607e-16
-1.417513537e-16
-1.324271073e-16
3.46676108e-17
-4.954768778e-16
-6.200784277e-16
-7.521976677e-16
-1.13292461e-15
-9.963078172e-16
-1.235331449e-15
-1.060982846e-15
-1.219864939e-15
1.911491533e-16
1.556824472e-17
4.712147491e-17
-2.769821945e-16
-7.063729907e-17
-5.13438927e-17
2.417647516e-16
-3.164926362e-16
-8.002778452e-16
-7.865526046e-16
-1.447030441e-15
-1.699968852e-15
-1.57768862e-15
-1.613436924e-15
-1.580864536e-15
-8.995934252e-16
-4.666383104e-16
-4.063004723e-16
-2.390385206e-16
-2.367780844e-16
-2.738031267e-16
-4.219799882e-16
-5.520011148e-16
-7.367166953e-16
-1.083298858e-15
-1.610832371e-15
-1.529994796e-15
-1.901226602e-15
-2.10690421e-15
-2.174885684e-15
-2.146206304e-15
-2.161696507e-15
-1.580991902e-15
-4.167473242e-17
-3.735407157e-16
-2.392624365e-16
-6.893425408e-16
-4.166029055e-16
-7.032972009e-16
-1.051089426e-15
-4.703265387e-16
-4.654510782e-16
-1.282409504e-15
-4.427818926e-16
-1.6294202e-15
-1.825325106e-15
-2.00395039e-15
-1.722384519e-15
-2.021717023e-15
-1.523062827e-15
-8.555730084e-16
1.058184035e-16
-4.319799789e-17
4.004792545e-16
2.87420038e-16
5.909199191e-16
5.273831542e-16
2.103566709e-16
3.807145855e-16
2.591886589e-16
-1.177476187e-16
-5.146328949e-17
3.688644611e-16
3.646799356e-16
1.594634536e-16
2.039007995e-16
2.622665734e-16
-1.923948351e-16
-2.768059395e-16
-3.364259161e-16
-2.362542835e-16
-6.968661175e-16
9.39566195e-17
1.630811614e-16
3.084614078e-16
-1.462705555e-16
-3.089104994e-16
-6.925317769e-16
-1.125129404e-15
6.911131394e-16
3.780357584e-16
6.593889508e-17
-2.319925178e-16
-3.365582296e-16
-8.169570102e-16
-5.548410977e-16
-4.963743575e-16
2.611603194e-17
1.046739987e-17
-1.441341786e-16
-3.862968072e-16
-6.958262536e-16
-1.35888936e-15
-1.265176471e-15
-5.046939049e-16
-1.089999287e-15
-6.244628992e-16
-1.802958985e-16
-1.410926014e-16
-9.349421741e-16
-1.088599731e-15
-6.638102947e-16
-1.569913122e-15
-9.73672985e-16
-1.094144572e-15
-9.442988316e-16
-2.995081937e-16
-5.118986176e-16
-8.203197369e-17
-2.594856564e-16
-4.57871097e-16
-9.410833918e-16
-1.107436945e-15
-1.12738027e-15
-1.212564092e-15
-9.281789367e-16
-1.683541445e-15
-4.955906973e-16
-9.48019444e-17
-5.988268173e-16
6.642442907e-17
-1.25016803e-16
-5.014803496e-16
-6.625856074e-16
-1.276779536e-15
-1.333613585e-15
-1.402850949e-15
-1.363162153e-15
-1.237748041e-15
-4.278563268e-16
-5.990352025e-16
-3.527928817e-16
6.937051827e-17
-5.648154609e-17
-1.284613653e-16
-5.689770907e-16
-9.556993654e-16
-1.439639599e-15
-1.141523131e-15
-1.336356769e-15
-9.918946309e-16
-1.704660497e-15
2.474820575e-17
2.955710255e-16
-6.290557731e-17
-1.00125287e-17
-1.202226004e-16
-3.142807615e-16
-8.759613736e-16
-9.022158475e-16
-9.691088255e-16
-7.555701164e-16
-1.291038833e-15
-1.491543294e-15
-1.131803888e-15
-1.2328192e-15
7.824651494e-16
7.224423637e-16
8.240093749e-16
2.85539339e-16
-3.470875794e-18
-1.039338452e-17
-3.408902407e-16
-5.59725525e-16
-6.559412018e-16
-6.424941504e-16
-7.845156553e-16
-7.159388122e-16
-1.057209979e-15
-9.451987714e-16
-1.108741819e-15
4.616735423e-16
7.450954535e-16
4.314017202e-16
3.206982098e-16
3.150706454e-16
1.329380087e-16
2.28094506e-16
1.883609938e-16
-1.938305324e-16
-7.266740169e-16
-9.629787516e-16
-1.194231035e-15
-9.203364198e-16
-1.287181536e-15
-8.319497076e-16
-4.981944508e-16
9.89169599e-17
-4.428424659e-17
2.187785141e-16
-1.649201632e-16
-5.142268675e-17
7.030306443e-17
2.570240005e-17
1.392846517e-16
-5.324430177e-16
-9.232804025e-16
-6.209862713e-16
-1.54591151e-15
-1.234123637e-15
-1.497949356e-15
-1.499411869e-15
-1.260870087e-15
-1.219249945e-15
8.552361198e-18
-4.688697637e-16
1.195343607e-16
1.209745604e-16
-3.507391251e-16
-2.352633442e-16
-5.862111703e-16
-6.612385998e-16
-7.041992474e-16
-9.317439792e-16
-1.631555091e-15
-1.68272864e-15
-1.75968109e-15
-1.952048861e-15
-2.14835973e-15
-1.912615357e-15
-1.703641417e-15
-1.321169573e-15
-2.954105383e-16
-1.928010139e-16
-3.943026534e-16
-1.538531216e-16
-8.254805694e-16
-2.566499052e-16
-1.358958156e-15
-1.127547512e-15
-7.448162514e-16
-9.021662742e-16
-1.156660499e-15
-9.160426335e-16
-2.061882629e-15
-1.619208418e-15
-1.876424441e-15
-2.506561096e-15
-1.53099558e-15
-1.812883549e-15
-2.044625346e-15
-4.582270986e-16
1.42589859e-16
5.82917451e-16
-1.57103031e-16
3.929396699e-16
6.884323104e-16
2.184190787e-16
1.265903386e-16
3.891946991e-16
2.987747806e-16
-3.52573886e-17
1.877909538e-16
4.909129502e-17
3.892029347e-16
-2.323694284e-16
-4.179495006e-17
-1.949012889e-16
-2.666257825e-16
2.346816085e-16
1.355067346e-16
-2.303503525e-16
-4.67339455e-16
-2.469055482e-16
1.506195062e-16
-1.535411981e-16
-1.376722709e-16
-6.454019432e-16
-8.146230238e-16
1.609086365e-17
3.992665074e-16
8.234051149e-17
-4.109268773e-17
-7.286409709e-17
-4.920542338e-16
-8.263170144e-16
-1.099930496e-15
2.458313374e-16
4.225883463e-16
4.425221056e-16
-1.578265867e-16
-1.832456304e-16
-6.13310295e-16
-5.668943597e-16
-3.458112413e-16
-7.234809971e-16
2.155608144e-16
1.532153658e-16
-3.78314866e-17
-2.5179749e-16
-5.982855588e-16
-8.543572614e-16
-8.926464836e-16
-5.606849037e-16
-1.027638911e-15
-1.367396063e-15
1.007576743e-16
-1.806053429e-16
3.239996233e-17
-8.812655877e-16
-6.201663728e-16
-9.714473586e-16
-7.395993344e-16
-8.707501179e-16
-1.073759746e-15
-7.46594152e-16
-1.285042963e-15
8.633769959e-17
-2.767001257e-16
-1.587266522e-17
-8.296348998e-18
-3.766783966e-16
-6.949584086e-16
-8.305822392e-16
-9.871555828e-16
-1.071885574e-15
-9.978209732e-16
-1.407798066e-15
-8.04775099e-16
-1.725899849e-16
-4.564068335e-16
-4.454088966e-16
-4.150912512e-16
3.898485738e-17
-1.722219403e-16
-6.308588574e-16
-7.895194337e-16
-1.466759056e-15
-1.226602253e-15
-1.183903363e-15
-1.154222911e-15
-1.064965386e-15
-1.702430743e-16
-2.97711515e-17
-5.571033719e-16
-9.692314378e-17
-1.678150117e-16
-1.220562403e-16
-5.648231493e-16
-7.061598798e-16
-1.154959608e-15
-8.811562114e-16
-6.175164442e-16
-1.207078438e-15
-1.140658224e-15
-1.563303243e-15
5.031008094e-16
4.061628383e-16
1.541546247e-16
-2.184080336e-16
1.394888961e-16
-2.712873791e-16
-5.295755809e-16
-7.397066662e-16
-9.477026903e-16
-7.772061602e-16
-1.259303592e-15
-1.194446579e-15
-1.358620434e-15
-1.045382552e-15
-1.190269637e-15
9.79615789e-16
1.293021761e-15
1.4252511e-15
5.384971808e-16
3.532499979e-16
2.259325941e-16
-1.607298886e-16
-1.739226616e-16
-2.6774142e-16
-3.448408269e-16
-5.907833126e-16
-1.183372259e-15
-9.802836669e-16
-1.14099912e-15
-6.720307662e-16
-5.491843408e-16
6.41563381e-16
7.047048064e-16
8.118763071e-16
7.467972868e-16
3.386191887e-16
2.305059958e-16
7.177259769e-16
2.445681611e-16
2.100808487e-16
-5.532645842e-16
-3.43210845e-16
-8.998481675e-16
-5.405202607e-16
-9.332570019e-16
-8.979865607e-16
-4.515025963e-16
-5.856991947e-16
2.884733576e-16
5.143773002e-16
3.863595967e-16
1.230610428e-16
-2.634227932e-16
-2.057901964e-17
-7.761806559e-18
-9.69728008e-18
-2.793635037e-16
-4.851312644e-16
-1.279406686e-15
-1.200517453e-15
-1.368077199e-15
-1.346014274e-15
-1.046734051e-15
-1.557782672e-15
-1.104167248e-15
-1.062730818e-15
-3.66245423e-17
-2.305423335e-17
-3.100008446e-16
-3.424584055e-16
-6.65713908e-17
-5.207397998e-16
-4.04187887e-16
-3.604956267e-16
-5.296928198e-16
-5.828903072e-16
-1.270852857e-15
-1.643434528e-15
-1.447430506e-15
-1.709576021e-15
-2.026756925e-15
-1.600817202e-15
-1.697108583e-15
-1.380357677e-15
-1.414731659e-15
1.531044257e-16
-1.81350821e-16
-3.452521158e-16
-7.036859187e-16
1.247230862e-16
1.621507225e-16
-8.853147487e-16
-5.096740672e-16
-1.085687915e-15
-1.173505755e-15
-1.007440841e-15
-1.779503949e-15
-1.24563963e-15
-2.000717681e-15
-1.637498586e-15
-1.991119846e-15
-1.955404852e-15
-1.53850456e-15
-1.608115704e-15
-1.074138604e-15
-2.384212688e-16
2.90777673e-16
6.017621788e-17
-4.07876951e-16
3.410895879e-16
5.686874478e-16
1.554882934e-16
2.910734882e-16
8.968618537e-16
1.013116915e-15
3.51215163e-16
1.735208576e-16
2.01847553e-16
6.109182712e-16
3.746984769e-16
1.501309476e-16
1.371387516e-16
2.705080814e-18
4.812111603e-16
-1.108749483e-16
-3.253530859e-16
-2.689949178e-16
-1.3591768e-16
-5.863811632e-17
5.470357744e-17
5.481502601e-17
3.737469191e-17
-2.914039859e-16
-2.989916868e-16
-1.569095691e-16
1.928049854e-16
-2.42247112e-17
1.720084131e-16
-5.525621955e-16
-7.127344749e-16
-7.039497356e-16
6.246229322e-17
5.078320319e-16
3.849647055e-16
-1.456371032e-16
-1.95735756e-16
-5.132288627e-16
-3.530443753e-16
-8.048944981e-16
-9.880142209e-16
5.313661479e-16
5.272179363e-16
2.201607606e-16
4.063538024e-16
-2.572445186e-16
-5.926431157e-16
-3.52181314e-16
-6.096984312e-17
-5.773075749e-16
-7.675350654e-16
5.082554149e-16
2.78699445e-16
3.696533373e-17
-3.90139515e-16
-2.428302711e-16
-3.359986319e-16
-4.33627291e-16
-6.020206053e-16
-9.376461851e-16
-9.253627379e-16
-7.665567752e-16
9.519390637e-16
-4.88355655e-17
-9.451604595e-18
-3.112715511e-16
-4.249933972e-16
-5.903586795e-16
-7.209755365e-16
-6.065284038e-16
-8.543325095e-16
-5.707183799e-16
-8.85866515e-16
-7.303750827e-16
4.372572958e-16
-1.264090716e-16
1.668171942e-16
-6.737766613e-17
-1.491991585e-17
-5.465429423e-16
-7.009756712e-16
-1.018659844e-15
-8.670513602e-16
-7.638491435e-16
-9.17574426e-16
-9.972426672e-16
-7.919487792e-16
3.7352553e-16
5.980034361e-17
-2.210661971e-16
-1.502761889e-16
4.821615317e-17
-1.85154442e-16
-3.709394409e-16
-3.75226615e-16
-8.800233599e-16
-1.193222537e-15
-8.875982265e-16
-1.250668004e-15
-7.697444336e-16
-8.27896457e-16
1.962820502e-16
1.433576485e-16
-1.064459644e-16
-1.047317739e-16
6.888575734e-17
-1.603821593e-16
-2.811121449e-16
-7.459753765e-16
-1.097641098e-15
-8.566523174e-16
-1.014265724e-15
-8.955326148e-16
-1.219711631e-15
-8.901282253e-16
-1.507782143e-15
8.502835761e-16
4.923327121e-16
6.363661654e-16
-4.931129721e-18
-2.134813556e-16
1.073246839e-16
-1.875857827e-16
-6.234644262e-16
-9.535792505e-16
-4.967466997e-16
-1.027511988e-15
-7.138205285e-16
-1.384181037e-15
-1.169940249e-15
-1.16222696e-15
-1.092768098e-15
1.034312687e-15
8.850306522e-16
1.2364286e-15
1.066778556e-15
6.667670066e-16
2.837620617e-16
3.628522322e-16
6.535573933e-18
1.448941805e-16
-3.973126533e-16
-3.612596119e-16
-8.400584653e-16
-1.244477718e-15
-8.663351149e-16
-6.710966397e-16
-4.6126113e-16
-6.275614981e-16
6.212545843e-16
7.892362189e-16
6.910824323e-16
4.971159203e-16
6.386365132e-16
2.94247706e-16
9.495598156e-17
5.165275537e-16
7.459873376e-17
5.962372734e-17
-5.493175428e-16
-6.459083198e-16
-5.45679965e-16
-7.009330123e-16
-5.433281754e-16
-2.537835441e-16
-3.754513117e-16
-8.303561578e-16
3.655280136e-16
5.67476795e-16
5.876563959e-16
1.641911296e-16
1.830504965e-16
7.877275716e-17
1.929785751e-16
2.644444064e-16
4.790984011e-17
-4.339147936e-17
-7.455124118e-16
-1.017388756e-15
-9.06640886e-16
-1.088403744e-15
-1.387071436e-15
-1.279594507e-15
-1.285592405e-15
-9.213154478e-16
-6.996115244e-16
-8.698607163e-17
-6.488078719e-17
3.494678493e-16
-1.426823329e-16
-4.970131047e-16
-6.865278523e-16
-4.551487301e-16
-4.601124117e-16
-3.472578401e-16
-3.834213435e-16