/*--------------------------------*- C++ -*----------------------------------*\
| =========                 |                                                 |
| \\      /  F ield         | OpenFOAM: The Open Source CFD Toolbox           |
|  \\    /   O peration     | Version:  2212                                  |
|   \\  /    A nd           | Website:  www.openfoam.com                      |
|    \\/     M anipulation  |                                                 |
\*---------------------------------------------------------------------------*/
FoamFile
{
    version     2.0;
    format      ascii;
    arch        "LSB;label=32;scalar=64";
    class       surfaceScalarField;
    location    "2";
    object      phi;
}
// * * * * * * * * * * * * * * * * * * * * * * * * * * * * * * * * * * * * * //

dimensions      [0 3 -1 0 0 0 0];

oriented        oriented;

internalField   nonuniform List<scalar> 
124950
(
0.0025
1.506446054e-20
5.132324194e-19
0.0025
-4.19030463e-19
5.902969875e-19
0.0025
-2.332593878e-19
4.31967065e-19
0.0025
-1.631669288e-19
-6.623167481e-19
0.0025
-1.233829232e-18
2.040648348e-19
0.0025
-3.634492315e-19
8.020668143e-19
0.0025
-4.170445475e-19
-7.377229578e-19
0.0025
-4.117833937e-19
8.474369841e-19
0.0025
1.28784912e-20
6.384290265e-20
0.0025
4.417609024e-19
-5.934133241e-19
0.0025
-1.7849225e-18
-5.010446465e-19
0.0025
-8.721430529e-19
6.70755187e-19
0.0025
-9.511679952e-19
-4.84024142e-19
0.0025
-5.658472374e-19
1.012680053e-18
0.0025
-2.050706926e-19
1.347253462e-19
0.0025
3.617207388e-19
-6.453366855e-19
0.0025
-2.682806766e-19
1.118441257e-18
0.0025
-1.570134822e-19
8.677335023e-20
0.0025
1.334296703e-19
1.957642485e-19
0.0025
1.030116472e-18
-5.290647954e-19
0.0025
-1.557042477e-18
-4.942585013e-19
0.0025
-1.278176101e-18
5.691054393e-19
0.0025
-6.553302512e-19
4.224986096e-19
0.0025
-6.497159666e-19
5.400855173e-19
0.0025
-7.88632612e-19
1.99008196e-19
0.0025
-5.45442228e-19
-3.193009576e-19
0.0025
-1.278865248e-20
9.470629987e-19
0.0025
-4.936340881e-19
1.103567517e-19
0.0025
2.36361475e-19
1.387394588e-19
0.0025
5.499118772e-19
-2.770176239e-19
0.0025
3.024631122e-19
1.129155839e-18
0.0025
-3.592245113e-19
1.393488628e-19
0.0025
8.104455264e-20
-7.866598341e-21
0.0025
-1.136460548e-19
-2.742975967e-19
0.0025
1.158915534e-18
-5.305121563e-20
0.0025
-1.55221308e-18
-3.768960483e-19
0.0025
-1.288360088e-18
3.554420207e-19
0.0025
-6.557001903e-19
3.732809237e-19
0.0025
-4.817361148e-19
5.896083488e-19
0.0025
-8.07741247e-19
3.17223876e-19
0.0025
-1.174677861e-18
4.296731067e-19
0.0025
-2.514309121e-19
8.754171177e-19
0.0025
-3.941421661e-19
1.027357231e-19
0.0025
-4.550447928e-19
2.745150195e-19
0.0025
-2.184560321e-19
-2.627087646e-19
0.0025
3.136529455e-19
1.039262637e-18
0.0025
-1.188161297e-19
4.285482793e-19
0.0025
-3.406206649e-19
-2.034796328e-19
0.0025
1.148270736e-20
-1.471196937e-19
0.0025
7.124248817e-19
1.166081554e-19
0.0025
5.945164262e-19
1.070697931e-18
0.0025
1.069087247e-19
5.2087878e-19
0.0025
-3.720042212e-19
-4.409635886e-20
0.0025
3.433610849e-20
-1.551700079e-19
0.0025
4.605880304e-19
-1.085427879e-19
0.0025
1.140471681e-18
4.747993435e-19
0.0025
-1.902336672e-18
-7.884766777e-19
0.0025
-1.157209211e-18
9.273044108e-20
0.0025
-1.152594616e-18
-5.516197754e-20
0.0025
-5.820239562e-19
1.984995297e-19
0.0025
-1.006766122e-18
3.135279518e-19
0.0025
-1.091885798e-18
1.89653847e-19
0.0025
-4.593107701e-19
7.537730163e-19
0.0025
-3.1778271e-19
3.538295635e-19
0.0025
-9.072354901e-19
4.421340228e-19
0.0025
-1.061633943e-18
-7.290436822e-20
0.0025
1.646469451e-19
9.201299891e-19
0.0025
-3.788939478e-19
6.476277126e-19
0.0025
-4.830329761e-20
4.692346315e-19
0.0025
2.673190772e-20
1.376843695e-19
0.0025
2.038261793e-19
-1.286547779e-19
0.0025
7.526367703e-19
6.461231484e-19
0.0025
-4.856772622e-19
4.632851295e-19
0.0025
-1.181929745e-19
5.518901793e-19
0.0025
2.546252238e-19
2.089866335e-19
0.0025
7.785247561e-19
-1.306199133e-19
0.0025
2.713306879e-19
-1.784219336e-19
0.0025
1.11377827e-19
3.036728221e-19
0.0025
-2.891447149e-19
3.966142284e-20
0.0025
-2.775898969e-20
4.946693667e-19
0.0025
2.148833919e-19
3.823168176e-19
0.0025
4.971731905e-19
-2.002915703e-19
0.0025
2.818287853e-19
1.430736279e-19
0.0025
7.602837136e-19
-1.029311521e-19
0.0025
-2.370890026e-18
-1.530315733e-18
0.0025
-1.587070072e-18
-4.967266035e-19
0.0025
-1.396709057e-18
-4.863253234e-19
0.0025
-1.109720877e-18
-7.987878061e-20
0.0025
-9.455079872e-19
1.099268165e-19
0.0025
-1.28377782e-18
-4.143195422e-22
0.0025
-3.21602205e-19
5.205779365e-19
0.0025
-5.612870298e-19
3.482185606e-19
0.0025
-1.036883248e-18
1.210086552e-19
0.0025
-9.541071675e-19
4.936709206e-19
0.0025
-3.896589208e-19
7.320653149e-19
0.0025
-5.099107801e-19
6.089428351e-19
0.0025
-2.156750645e-19
6.111064853e-19
0.0025
-5.696508754e-19
2.687052582e-19
0.0025
-5.59901712e-19
2.016441826e-20
0.0025
6.974310947e-19
6.826688064e-19
0.0025
-4.175023794e-19
5.194358967e-19
0.0025
-1.604060528e-19
8.582468846e-19
0.0025
1.412476272e-19
3.372481242e-19
0.0025
9.098911882e-20
-2.156257031e-19
0.0025
-7.540446668e-20
-3.335885864e-19
0.0025
-5.314102675e-20
7.470121249e-20
0.0025
2.669723572e-20
7.114598453e-19
0.0025
1.564369652e-19
3.018301284e-19
0.0025
4.413649958e-20
3.470930436e-19
0.0025
2.473372067e-19
-2.0109973e-19
0.0025
4.041406196e-19
1.828782809e-19
0.0025
7.370296517e-19
-9.48200501e-20
0.0025
3.786931176e-19
4.975731311e-19
0.0025
-4.286815501e-21
2.735552887e-19
0.0025
1.999200322e-19
2.462506204e-19
0.0025
1.675337076e-20
-1.858545455e-19
0.0025
-2.827292481e-19
-1.298270966e-19
0.0025
2.030330654e-19
2.248618916e-19
0.0025
2.798938647e-19
1.243074572e-19
0.0025
1.047590278e-18
3.054076012e-19
0.0025
-1.996680127e-18
-1.549526403e-18
0.0025
-1.945694166e-18
-1.044433382e-18
0.0025
-1.736836308e-18
-1.268356127e-18
0.0025
-1.707735464e-18
-5.218911866e-19
0.0025
-1.211952543e-18
-6.322770726e-19
0.0025
-1.76397298e-18
-1.960404424e-19
0.0025
-6.706095711e-19
2.917422933e-19
0.0025
-1.013854685e-18
2.063926718e-19
0.0025
-7.628031545e-19
-2.999278443e-19
0.0025
-1.254041983e-18
5.44052814e-19
0.0025
-6.214048276e-19
2.211195842e-19
0.0025
-5.732273761e-19
6.344206436e-19
0.0025
-3.929663437e-19
3.417172371e-19
0.0025
-8.200682324e-19
1.62011762e-19
0.0025
-1.014864865e-18
-1.704010769e-19
0.0025
2.126781814e-19
7.466751734e-19
0.0025
-4.222182649e-19
5.106631438e-19
0.0025
-2.689726834e-19
6.165578785e-19
0.0025
-5.712134522e-20
5.675853727e-19
0.0025
-8.39521729e-19
-1.524238348e-20
0.0025
-8.051615008e-19
-8.290979518e-19
0.0025
-3.594714191e-19
2.273040594e-19
0.0025
1.743963201e-19
6.903417628e-19
0.0025
5.043382555e-20
3.424697633e-19
0.0025
-3.742327246e-19
3.047734586e-19
0.0025
-6.984510197e-20
1.016523735e-19
0.0025
3.14230487e-19
1.727336064e-21
0.0025
2.256919225e-19
-5.001686524e-19
0.0025
7.370510358e-20
2.480616071e-19
0.0025
-6.843188791e-22
5.583736989e-19
0.0025
2.983794821e-19
3.997435975e-19
0.0025
1.917508917e-19
1.80035298e-19
0.0025
-2.391492286e-19
-2.837790682e-20
0.0025
2.912971481e-19
-4.023786621e-20
0.0025
2.686151017e-19
-9.079018349e-20
0.0025
6.187542997e-19
-1.550986088e-19
0.0025
-4.52861642e-19
3.133132292e-19
0.0025
5.283689349e-19
8.536452001e-20
0.0025
7.400618447e-20
1.924928235e-19
0.0025
-4.036099085e-19
-3.68446579e-19
0.0025
-3.812676827e-19
-6.201742433e-19
0.0025
-6.656315994e-19
-3.997189867e-19
0.0025
-1.090020667e-19
-3.995414888e-19
0.0025
-6.653497542e-20
9.153310761e-20
0.0025
6.422766213e-19
3.675052823e-19
0.0025
-1.55588766e-18
-1.4671383e-18
0.0025
-1.668376168e-18
-1.128361166e-18
0.0025
-1.60258002e-18
-1.382539019e-18
0.0025
-1.899566666e-18
-8.376132865e-19
0.0025
-1.236999366e-18
-1.052436791e-18
0.0025
-1.873917645e-18
-1.054227149e-18
0.0025
-9.910717634e-19
4.248915187e-20
0.0025
-1.261738339e-18
-4.279635147e-19
0.0025
-1.339119461e-18
-9.581107936e-19
0.0025
-1.826897323e-18
-1.53818701e-19
0.0025
-8.539438662e-19
2.469542463e-19
0.0025
-6.797676196e-19
3.637200291e-19
0.0025
-9.073060813e-19
-9.125434452e-20
0.0025
-7.066238028e-19
-3.236831815e-19
0.0025
-2.027298993e-18
-5.351351744e-19
0.0025
-3.604557154e-19
2.091596976e-19
0.0025
-4.731248498e-19
4.003548926e-19
0.0025
-4.707392084e-19
2.470030951e-20
0.0025
-5.971951042e-19
2.639575864e-19
0.0025
-1.022575586e-18
-5.477031688e-20
0.0025
-1.291397351e-18
-5.550903634e-19
0.0025
-2.491841711e-19
7.501195211e-19
0.0025
1.406751315e-19
5.690034486e-19
0.0025
-2.168873043e-19
4.128508332e-19
0.0025
-6.047940074e-19
-1.081213622e-19
0.0025
-6.388158583e-19
3.793674592e-19
0.0025
-4.178907275e-19
-4.227678246e-19
0.0025
-7.342926635e-20
-4.122264502e-19
0.0025
-1.623629694e-19
4.268468078e-19
0.0025
-3.693079404e-20
3.832780284e-19
0.0025
2.022248413e-19
6.115628929e-19
0.0025
-1.331114479e-19
2.426646422e-19
0.0025
-5.156974399e-19
-3.340277122e-21
0.0025
1.188452277e-20
-3.987787293e-19
0.0025
7.476960476e-20
-4.290708674e-19
0.0025
8.314035927e-20
-6.75394631e-19
0.0025
1.823763613e-19
3.843713186e-19
0.0025
6.65084032e-20
-5.714068171e-20
0.0025
-2.060603027e-19
3.1781269e-19
0.0025
-3.0369686e-19
-1.757220347e-20
0.0025
-6.93286565e-20
5.747491902e-20
0.0025
-9.600895016e-20
-2.17029233e-19
0.0025
2.369690502e-19
-2.904951622e-19
0.0025
3.087255361e-19
-6.565289294e-20
0.0025
5.794534653e-19
1.228700605e-19
0.0025
-5.774196023e-19
6.471792786e-19
0.0025
3.111199691e-19
9.142386592e-20
0.0025
2.184072201e-19
-3.890261311e-19
0.0025
-6.321877103e-19
-2.676201829e-19
0.0025
-1.674046469e-19
-1.449809667e-19
0.0025
-1.190942944e-19
2.714860189e-19
0.0025
1.192188859e-19
-1.224796426e-19
0.0025
6.946874311e-20
-7.849530576e-20
0.0025
-4.736733031e-19
-2.003479985e-19
0.0025
6.251675094e-19
5.699067256e-19
0.0025
-8.236572733e-19
-7.606980126e-19
0.0025
-1.413422875e-18
-1.108682088e-18
0.0025
-1.267278329e-18
-9.506365518e-19
0.0025
-1.896556456e-18
-1.325745625e-18
0.0025
-1.420859783e-18
-1.126103414e-18
0.0025
-1.746394255e-18
-1.298695906e-18
0.0025
-1.252273025e-18
-5.389986075e-19
0.0025
-1.698712769e-18
-9.414149846e-19
0.0025
-1.412143514e-18
-1.1977825e-18
0.0025
-1.605698485e-18
-1.017265372e-18
0.0025
-1.005567029e-18
-1.930021665e-21
0.0025
-1.110231076e-18
-3.509470881e-19
0.0025
-1.1571177e-18
-5.940821255e-19
0.0025
-1.008021197e-18
-3.834045286e-19
0.0025
-2.451639979e-18
-8.862742476e-19
0.0025
-1.146626587e-18
-7.340596691e-20
0.0025
-6.787601969e-19
4.66303987e-19
0.0025
-4.343537672e-19
-1.958159054e-19
0.0025
-8.567824008e-19
-3.516764475e-20
0.0025
-8.355389007e-19
1.221872623e-20
0.0025
-1.40236788e-18
-6.061544968e-19
0.0025
7.022932681e-20
7.704082427e-19
0.0025
1.247173992e-20
3.918060152e-19
0.0025
-6.244071401e-19
4.302696464e-20
0.0025
-6.979047606e-19
-3.683784233e-19
0.0025
-9.962718034e-19
1.471292596e-19
0.0025
-1.074638175e-18
-6.393632547e-19
0.0025
-5.720381747e-19
5.401801902e-20
0.0025
-1.616033829e-19
6.555883776e-19
0.0025
-1.89650808e-19
2.866163662e-19
0.0025
9.934112436e-20
7.471238616e-19
0.0025
-5.218225591e-19
3.108443774e-19
0.0025
8.009552238e-20
2.152618901e-19
0.0025
-6.096992126e-19
-5.205487114e-19
0.0025
-2.476595148e-19
-6.539497393e-19
0.0025
-8.496579916e-19
-7.904598186e-19
0.0025
5.923104929e-19
1.147437942e-18
0.0025
1.473469413e-19
1.463772892e-19
0.0025
-3.819285916e-19
3.478213103e-19
0.0025
-1.342220028e-19
2.166129989e-19
0.0025
-1.4132001e-19
6.550832424e-21
0.0025
-3.129718344e-19
-4.015077873e-20
0.0025
8.043677904e-21
-5.570621285e-19
0.0025
6.001257318e-20
-3.155736073e-19
0.0025
3.970262802e-19
-7.712259109e-20
0.0025
-4.308969749e-19
-2.326211108e-19
0.0025
1.905926507e-19
5.112956965e-19
0.0025
2.360280192e-19
-3.927420761e-21
0.0025
-6.66307855e-19
-2.032553674e-20
0.0025
-1.359153841e-19
1.101816168e-19
0.0025
-1.836416843e-19
3.980192533e-20
0.0025
2.684780224e-19
-3.42681587e-19
0.0025
1.655153259e-19
9.913009288e-20
0.0025
4.104596541e-19
7.169650526e-20
0.0025
1.084211155e-18
1.594927813e-19
0.0025
-2.381318271e-20
9.767072427e-19
0.0025
-2.287861592e-19
-6.365656374e-19
0.0025
-5.986596569e-19
-5.845937712e-19
0.0025
2.879993888e-20
-3.140966946e-19
0.0025
-6.911296747e-19
-4.091444442e-19
0.0025
-1.773147076e-19
5.062634661e-19
0.0025
2.665641363e-19
-2.066229532e-19
0.0025
-2.403497784e-19
-1.870657457e-19
0.0025
3.897842382e-21
3.914796084e-19
0.0025
1.288710353e-19
-9.008579118e-20
0.0025
-4.648782869e-19
-3.77278601e-19
0.0025
-6.638829495e-19
-1.037379382e-18
0.0025
-1.113569723e-18
-8.953813849e-19
0.0025
-9.150916965e-19
-5.580418675e-19
0.0025
-1.721805206e-18
-1.552029544e-18
0.0025
-1.433800512e-18
-8.518784529e-19
0.0025
-1.291136855e-18
-7.942725167e-19
0.0025
-1.674095743e-18
-1.004433361e-18
0.0025
-1.582150589e-18
-1.106536289e-18
0.0025
-1.576856083e-18
-1.18213042e-18
0.0025
-1.320587188e-18
-1.06798505e-18
0.0025
-1.243961082e-18
-7.336221865e-19
0.0025
-1.587596519e-18
-5.498586727e-19
0.0025
-1.218818944e-18
-8.204246721e-19
0.0025
-1.158017218e-18
-9.010698856e-19
0.0025
-1.927270023e-18
-8.718332111e-19
0.0025
-1.257495776e-18
-4.287470345e-19
0.0025
-9.709309902e-19
4.338716004e-20
0.0025
-8.476277726e-19
-5.740256927e-19
0.0025
-8.716175012e-19
-1.166614385e-19
0.0025
-1.168559502e-18
-1.097109626e-19
0.0025
-1.438802773e-18
-6.769168592e-19
0.0025
3.376283865e-20
7.954446975e-19
0.0025
-7.795873012e-19
1.543459214e-19
0.0025
-1.006668078e-18
-5.241744989e-20
0.0025
-4.634284595e-19
-3.058633137e-19
0.0025
-9.229800844e-19
2.105836901e-20
0.0025
-8.526472044e-19
-3.79358519e-19
0.0025
-8.83428749e-19
-6.323091706e-21
0.0025
-7.386829071e-19
5.859550877e-21
0.0025
-3.330719777e-19
1.875330702e-19
0.0025
-4.182667978e-19
2.967276889e-19
0.0025
-9.816597135e-19
-1.224015247e-19
0.0025
-1.587900233e-19
2.992573109e-19
0.0025
-6.626643101e-19
-3.400704721e-19
0.0025
-3.555070313e-19
-1.971964301e-19
0.0025
-1.570905494e-18
-8.047779048e-19
0.0025
9.018889137e-20
6.424612835e-19
0.0025
-4.97779365e-19
2.027743344e-19
0.0025
-5.024838971e-19
2.467133347e-19
0.0025
2.179751227e-20
7.486169479e-19
0.0025
5.97244806e-20
-1.933196847e-19
0.0025
-4.816565211e-19
-1.111187724e-19
0.0025
-4.854276081e-19
-6.263955651e-19
0.0025
-3.092178624e-19
-4.802234632e-19
0.0025
-3.125190798e-19
-6.12245242e-19
0.0025
-8.057671876e-20
-1.185837441e-19
0.0025
-1.436628495e-19
9.133683456e-20
0.0025
-1.734755546e-19
3.454434074e-19
0.0025
-4.333987268e-19
-5.987429212e-20
0.0025
-2.023989996e-19
1.177298319e-19
0.0025
-3.177956406e-19
-4.529725482e-19
0.0025
-5.701694863e-19
-6.382753611e-19
0.0025
4.494450586e-20
-2.557716413e-19
0.0025
1.13195574e-19
-1.007504777e-19
0.0025
3.663116962e-19
-3.973868498e-19
0.0025
-8.568494421e-19
5.543028948e-19
0.0025
1.128177596e-19
-1.614169758e-19
0.0025
-3.922537421e-19
-2.950486914e-19
0.0025
-1.76865979e-19
2.664955896e-20
0.0025
-5.556729607e-19
-3.549374178e-20
0.0025
-8.137431086e-20
3.714539747e-19
0.0025
2.571496956e-19
-3.241502877e-19
0.0025
2.885847145e-20
-2.330832122e-19
0.0025
-7.813042233e-20
8.862085984e-20
0.0025
4.481658336e-19
-1.205268255e-19
0.0025
2.143783539e-19
-3.247814042e-19
0.0025
-3.43497679e-19
5.175324489e-19
0.0025
-2.138974051e-19
-9.346940801e-20
0.0025
-4.041090291e-19
-2.416080716e-19
0.0025
5.546921883e-20
-3.29239939e-19
0.0025
2.197726072e-19
1.174015719e-19
0.0025
-3.948284203e-20
4.54104018e-19
0.0025
-4.61056478e-19
-6.101394279e-19
0.0025
6.911420653e-20
-3.167658153e-20
0.0025
-2.870490735e-19
-2.572179961e-19
0.0025
-3.067851605e-19
-5.095218032e-19
0.0025
-4.677036348e-19
3.553701124e-19
0.0025
4.901992148e-19
-3.598987066e-19
0.0025
-1.13290904e-18
-1.433691948e-18
0.0025
-1.229558725e-18
-1.08327605e-18
0.0025
-4.969245421e-19
-4.07922123e-19
0.0025
-1.346620815e-18
-1.116108075e-18
0.0025
-1.11675819e-18
-9.321832194e-19
0.0025
-1.12896289e-18
-2.929329898e-19
0.0025
-1.763966294e-18
-7.230588917e-19
0.0025
-1.067557742e-18
-6.8318504e-19
0.0025
-1.299601907e-18
-8.425816911e-19
0.0025
-1.029436467e-18
-6.585480758e-19
0.0025
-1.389010915e-18
-5.862204726e-19
0.0025
-1.396663e-18
-8.633312196e-19
0.0025
-1.344999296e-18
-6.962023542e-19
0.0025
-1.144642617e-18
-8.172579423e-19
0.0025
-1.357615179e-18
-7.236814195e-19
0.0025
-1.367667324e-18
-1.065564516e-18
0.0025
-1.13559908e-18
-3.967203159e-19
0.0025
-1.494603563e-18
-1.068940209e-18
0.0025
-1.275123529e-18
-6.625425994e-19
0.0025
-1.211587926e-18
-3.935348938e-19
0.0025
-1.01468372e-18
-3.453192485e-19
0.0025
-5.720177619e-19
4.383190283e-19
0.0025
-1.090726231e-18
-2.773441352e-19
0.0025
-1.140089206e-18
-3.583481332e-19
0.0025
-8.975696777e-19
-3.305048933e-19
0.0025
-9.533690118e-19
-1.763306163e-19
0.0025
-9.05707373e-19
-3.795630481e-19
0.0025
-1.445302277e-18
-5.958106502e-19
0.0025
-1.351729771e-18
-7.779383698e-19
0.0025
-5.24042964e-19
3.668560119e-19
0.0025
-1.178245154e-18
3.632112027e-20
0.0025
-9.98765552e-19
1.982703634e-19
0.0025
-1.921868745e-20
2.182938805e-20
0.0025
-7.898592263e-19
-3.904639674e-19
0.0025
-5.481952759e-19
-1.246351942e-19
0.0025
-1.604709409e-18
-6.973017058e-19
0.0025
-1.415321839e-19
4.493802919e-19
0.0025
-8.529435179e-19
1.519076568e-19
0.0025
-4.584686552e-19
-4.266648062e-20
0.0025
-1.989166886e-19
6.657226804e-19
0.0025
1.407195003e-20
3.382621896e-19
0.0025
-2.850862994e-19
1.470390036e-19
0.0025
-3.595005045e-19
-9.46223471e-20
0.0025
-7.516499996e-19
-4.132982746e-19
0.0025
-7.356498143e-19
-9.057537791e-19
0.0025
4.027709499e-20
2.505935926e-19
0.0025
-1.937426302e-19
2.256387896e-20
0.0025
-6.439055106e-19
4.310340797e-19
0.0025
-3.230706234e-19
-5.243835017e-20
0.0025
-5.958889571e-19
-2.420295142e-19
0.0025
-4.974036386e-19
-4.500031942e-19
0.0025
-7.392513715e-19
-5.314983651e-19
0.0025
-2.57098336e-19
-6.264072363e-19
0.0025
-3.568763041e-19
-3.998009037e-19
0.0025
-3.943998849e-19
-7.7629292e-19
0.0025
-8.912344967e-19
3.93366592e-19
0.0025
-7.434604287e-20
-6.210742341e-20
0.0025
-6.091582833e-20
3.175050958e-20
0.0025
-2.827368414e-19
-7.716069537e-20
0.0025
-5.753360551e-19
-1.23768853e-19
0.0025
-3.572909288e-19
-9.285143412e-20
0.0025
-3.826456937e-20
-3.603136474e-19
0.0025
-3.13006957e-19
-5.197757642e-19
0.0025
-1.258653878e-19
-8.191324103e-20
0.0025
9.683345369e-20
-2.453615592e-19
0.0025
3.54446061e-19
-4.651402139e-19
0.0025
-1.087793497e-18
6.757227062e-20
0.0025
-6.465520844e-19
1.405543393e-19
0.0025
-4.910606427e-19
7.892279959e-20
0.0025
2.746747884e-19
-1.893223659e-19
0.0025
-6.490963363e-20
4.099782496e-20
0.0025
-3.530475069e-19
1.324735743e-19
0.0025
-4.470305046e-19
-4.458149072e-19
0.0025
1.222529108e-19
-1.909874603e-19
0.0025
-1.055650228e-19
-6.327503132e-20
0.0025
-2.068751979e-20
-1.704246673e-19
0.0025
1.745344582e-19
1.019443514e-20
0.0025
8.008542798e-19
-2.911788618e-19
0.0025
-9.291489501e-21
1.099135627e-18
0.0025
-4.485654666e-19
-3.701491702e-19
0.0025
-9.987528763e-20
1.025182639e-19
0.0025
3.567603506e-19
2.456168817e-19
0.0025
3.619229861e-19
1.407215154e-19
0.0025
2.105754861e-19
2.695446541e-19
0.0025
-3.483264307e-19
2.358134615e-19
0.0025
1.249715503e-19
-5.773787385e-19
0.0025
-6.84588167e-20
2.810711802e-19
0.0025
1.742745448e-19
1.532660393e-19
0.0025
7.155204416e-20
-1.606930448e-20
0.0025
-5.924708729e-19
-7.818565693e-20
0.0025
6.34168295e-19
1.283746641e-19
0.0025
-1.194163172e-18
-1.265555958e-18
0.0025
-1.466534815e-18
-1.113936335e-18
0.0025
-7.328808481e-19
-8.224322969e-19
0.0025
-1.612695608e-18
-9.472549261e-19
0.0025
-9.114304461e-19
-9.435916311e-19
0.0025
-9.900081671e-19
-7.157285052e-20
0.0025
-1.32690619e-18
-6.767947805e-19
0.0025
-1.069352314e-18
-8.415916541e-19
0.0025
-1.130400394e-18
-6.044727152e-19
0.0025
-9.731679597e-19
-2.880028126e-19
0.0025
-1.270474684e-18
-6.366347842e-19
0.0025
-1.379549276e-18
-7.728740177e-19
0.0025
-1.280719919e-18
-5.082419679e-19
0.0025
-1.207135603e-18
-6.855488138e-19
0.0025
-1.247475169e-18
-8.18490479e-19
0.0025
-1.317618742e-18
-1.062420812e-18
0.0025
-1.381343569e-18
-5.898218998e-19
0.0025
-1.284128111e-18
-8.333535601e-19
0.0025
-1.317747999e-18
-3.681295946e-19
0.0025
-8.986550502e-19
-5.649910065e-19
0.0025
-8.631261473e-19
-4.309627146e-19
0.0025
-5.13537405e-19
-5.322617921e-20
0.0025
-1.036271895e-18
-8.319259497e-19
0.0025
-1.338601004e-18
-4.706220977e-19
0.0025
-1.274207584e-18
-5.715446273e-19
0.0025
-9.265489323e-19
-3.127279854e-19
0.0025
-6.837037768e-19
-1.56800788e-19
0.0025
-1.643626398e-18
-3.771856073e-19
0.0025
-1.274547704e-18
-6.6543002e-19
0.0025
-8.227698408e-19
3.182068629e-19
0.0025
-1.165808265e-18
-5.008588451e-19
0.0025
-8.354477461e-19
3.356652329e-20
0.0025
-7.05100245e-19
8.838665443e-21
0.0025
-7.742343219e-19
-3.503341161e-19
0.0025
-6.734360501e-19
-1.219801567e-19
0.0025
-1.25426316e-18
-4.156256062e-19
0.0025
-3.535468999e-19
7.4344387e-19
0.0025
-8.210156849e-19
-1.223116727e-19
0.0025
-5.474521208e-19
6.106562047e-20
0.0025
-8.796815822e-19
7.015919717e-20
0.0025
-8.564676178e-19
4.730295239e-21
0.0025
-1.124067892e-19
-1.026084978e-20
0.0025
-6.920584384e-19
-1.093748377e-19
0.0025
-7.857916783e-19
-3.656753656e-19
0.0025
-7.460549133e-19
-6.100162866e-19
0.0025
-4.245259831e-19
-6.245802746e-20
0.0025
-5.242340631e-19
2.776042632e-19
0.0025
-7.501090798e-19
2.65408533e-20
0.0025
-3.139325394e-19
8.386197823e-20
0.0025
-3.786460141e-19
2.877008199e-19
0.0025
-5.80877329e-19
-1.099314164e-19
0.0025
-5.176701511e-19
-5.698352601e-20
0.0025
-3.319376019e-19
-5.626087586e-19
0.0025
-4.812564521e-19
-3.799256965e-19
0.0025
-8.165285597e-19
-1.055182378e-18
0.0025
-4.945999305e-19
1.407632752e-19
0.0025
-3.275358034e-19
2.181539061e-19
0.0025
2.656803874e-20
2.590818322e-19
0.0025
-5.601428164e-19
-1.85754871e-19
0.0025
-9.154748397e-19
-5.134200232e-19
0.0025
-7.309427896e-19
-7.274763071e-19
0.0025
-7.04306446e-19
-1.393532852e-19
0.0025
-1.820243559e-19
-5.548267883e-19
0.0025
-2.093276064e-19
-2.356526526e-19
0.0025
-1.513691225e-19
-3.940787089e-19
0.0025
-2.896309229e-20
-4.870121206e-19
0.0025
-9.397608528e-19
2.36488973e-19
0.0025
-6.090763749e-19
8.66613653e-20
0.0025
-2.331088432e-19
3.896895721e-19
0.0025
5.250625194e-20
-2.780574293e-19
0.0025
-4.099552577e-19
-1.670651411e-19
0.0025
-4.798653015e-19
-8.211631844e-20
0.0025
-2.196577296e-19
-1.877647376e-19
0.0025
6.685978127e-20
-3.902906359e-20
0.0025
-1.374862814e-19
-3.989637108e-21
0.0025
2.203600274e-19
7.475554816e-20
0.0025
4.040729878e-19
-1.003921506e-19
0.0025
6.578283842e-19
-3.178814645e-19
0.0025
-1.420750475e-19
1.16802187e-18
0.0025
-6.84547761e-19
1.744401103e-19
0.0025
-3.506255763e-19
-5.580974631e-20
0.0025
1.186289885e-19
-1.320091206e-20
0.0025
2.503960898e-19
-8.79128949e-21
0.0025
-1.715781048e-19
-5.072079833e-21
0.0025
-9.056474281e-19
-4.693465059e-20
0.0025
-1.732554922e-19
-3.627666946e-19
0.0025
3.26226782e-19
-2.724407039e-20
0.0025
-1.797011079e-19
-2.476895037e-20
0.0025
-2.486093309e-19
-1.033381834e-19
0.0025
4.534037298e-19
1.820532647e-20
0.0025
1.115986004e-18
2.151043601e-19
0.0025
3.694531457e-20
5.62865746e-19
0.0025
-8.026927381e-19
1.705037102e-19
0.0025
4.373409658e-19
1.457455439e-19
0.0025
-2.143160035e-19
-5.417583204e-19
0.0025
-4.275536358e-19
-1.775356423e-19
0.0025
-1.123489359e-19
2.541011659e-19
0.0025
3.477910328e-19
-3.067961084e-19
0.0025
-6.110437838e-19
3.529526196e-20
0.0025
3.475308281e-19
2.139054798e-20
0.0025
-3.190402292e-19
-5.754827499e-19
0.0025
-3.386901136e-19
2.076872071e-19
0.0025
1.475732424e-19
3.612739451e-19
0.0025
-1.897563553e-19
-4.081526179e-19
0.0025
1.731768596e-19
3.829387349e-19
0.0025
-6.487342653e-19
-7.60653383e-19
0.0025
-1.723028614e-18
-1.396547095e-18
0.0025
-1.268111588e-18
-1.228895069e-18
0.0025
-1.813263927e-18
-8.571690861e-19
0.0025
-1.107570704e-18
-8.091843929e-19
0.0025
-6.767490748e-19
-1.347902815e-19
0.0025
-1.378770675e-18
-9.385374944e-19
0.0025
-1.45948356e-18
-9.438873103e-19
0.0025
-1.245126553e-18
-4.291174299e-19
0.0025
-9.866189047e-19
-1.09059866e-20
0.0025
-1.475762391e-18
-8.095089645e-19
0.0025
-1.23447445e-18
-8.129994954e-19
0.0025
-1.21955743e-18
-4.36717674e-19
0.0025
-1.079484273e-18
-6.082319786e-19
0.0025
-1.428678953e-18
-6.107987077e-19
0.0025
-1.066948717e-18
-7.343327927e-19
0.0025
-1.131402434e-18
-5.095336764e-19
0.0025
-1.330256132e-18
-7.516972607e-19
0.0025
-1.374328073e-18
-4.720906958e-19
0.0025
-1.13960131e-18
-6.451478276e-19
0.0025
-7.962966767e-19
-6.822348024e-19
0.0025
-7.009942601e-19
-2.087910343e-19
0.0025
-9.303577172e-19
-7.901246666e-19
0.0025
-1.26514114e-18
-4.972081319e-19
0.0025
-1.169590469e-18
-4.55387365e-19
0.0025
-1.232972151e-18
-7.659579647e-19
0.0025
-7.582757595e-19
-1.9370215e-19
0.0025
-1.463243717e-18
-2.930614009e-19
0.0025
-1.166828518e-18
-8.720721422e-19
0.0025
-8.159838458e-19
-1.945470252e-19
0.0025
-9.215718766e-19
-8.004390828e-19
0.0025
-1.115935911e-18
-3.682926266e-19
0.0025
-1.31878893e-18
-4.70123702e-19
0.0025
-1.07572587e-18
-4.362848268e-19
0.0025
-1.035079919e-18
-2.058632958e-19
0.0025
-9.546982338e-19
-2.548091218e-19
0.0025
-1.187569948e-18
4.285726938e-19
0.0025
-1.059876184e-18
-2.938655575e-19
0.0025
-5.893617263e-19
-2.367207632e-19
0.0025
-9.282022107e-19
-2.14942714e-19
0.0025
-1.149881136e-18
-8.82857027e-20
0.0025
-7.031747615e-19
-2.625013038e-19
0.0025
-1.060540068e-18
-3.292694787e-19
0.0025
-9.610212479e-19
-5.504245032e-19
0.0025
-1.121014316e-18
-2.739064596e-19
0.0025
-6.866558634e-19
-1.772546859e-19
0.0025
-6.902842652e-19
4.641604869e-19
0.0025
-8.890056078e-19
8.724147391e-20
0.0025
-4.130116484e-19
2.579895812e-19
0.0025
-5.244557035e-19
4.499957535e-20
0.0025
-9.606929019e-19
-6.218177665e-19
0.0025
-5.016851197e-19
2.333310796e-19
0.0025
-5.003400544e-19
-4.764016784e-19
0.0025
-4.625557642e-19
-3.731136981e-19
0.0025
-1.154558125e-18
-8.773929857e-19
0.0025
-5.909028828e-19
8.716086371e-20
0.0025
-5.227653369e-19
3.316562888e-19
0.0025
-2.478321584e-19
2.901177938e-19
0.0025
-3.373115824e-19
3.390483259e-19
0.0025
-5.491325235e-19
-9.371706767e-20
0.0025
-5.831581989e-19
-3.035051728e-19
0.0025
-6.388316042e-19
-3.123587076e-20
0.0025
-3.683838502e-19
-5.510657216e-19
0.0025
-3.444016611e-19
-4.5224828e-19
0.0025
-6.655245635e-19
-7.312660112e-19
0.0025
-2.300796808e-19
-5.444392376e-19
0.0025
-6.038030963e-19
3.389385418e-19
0.0025
-4.234949691e-19
5.096192748e-20
0.0025
-1.783682524e-19
4.959075878e-19
0.0025
6.379790178e-20
1.595603941e-20
0.0025
-4.620010666e-19
-5.300566518e-20
0.0025
-3.484293554e-19
-3.083710872e-19
0.0025
-1.482370749e-19
-1.617913062e-19
0.0025
-5.964927297e-19
-1.953712957e-19
0.0025
8.012335724e-21
-9.523844869e-20
0.0025
6.084352166e-21
-2.418427882e-19
0.0025
6.482021761e-20
-1.128599286e-19
0.0025
1.844223139e-19
-3.195342042e-19
0.0025
-2.488215471e-19
7.42420438e-19
0.0025
-7.797869779e-19
2.288599315e-19
0.0025
-1.667807786e-19
4.496765845e-20
0.0025
-2.987110149e-19
-4.000158584e-19
0.0025
-1.430931157e-19
-2.43564804e-19
0.0025
-4.214788923e-19
-5.71458362e-20
0.0025
-6.680992155e-19
-4.586890009e-20
0.0025
-1.244544774e-19
-2.497059389e-19
0.0025
1.734434526e-19
1.63091791e-19
0.0025
-7.572703205e-20
2.331059867e-19
0.0025
3.310131876e-20
-1.11801808e-19
0.0025
7.127167115e-19
-1.130858073e-19
0.0025
9.892688864e-19
8.903902608e-20
0.0025
3.717795772e-19
9.574751271e-19
0.0025
-3.646251453e-19
5.72762669e-19
0.0025
-1.614729895e-20
2.369510797e-19
0.0025
-1.914627262e-19
-2.33918537e-19
0.0025
-3.621006957e-19
-5.053697281e-19
0.0025
-3.301598888e-19
-2.330241194e-19
0.0025
-5.095798417e-19
-2.316220745e-19
0.0025
-5.164812677e-19
-1.568741013e-20
0.0025
-1.511178686e-19
-2.490281596e-19
0.0025
1.025906888e-19
-2.101162579e-19
0.0025
-1.018455946e-19
3.385882774e-19
0.0025
1.174401238e-19
2.984315636e-19
0.0025
6.998712363e-19
-2.98776794e-19
0.0025
7.90155142e-19
7.597016253e-19
0.0025
-1.560650068e-19
2.743317707e-19
0.0025
-5.022831246e-19
8.475138594e-19
0.0025
3.531376233e-19
-1.613864317e-19
0.0025
-3.613590332e-19
-1.660245365e-19
0.0025
2.528468839e-19
1.50716912e-19
0.0025
-9.471244344e-20
3.344576719e-19
0.0025
2.619575484e-19
-5.838113967e-19
0.0025
-1.745589524e-19
-4.07618029e-19
0.0025
-7.190667875e-19
3.12289683e-19
0.0025
2.952758479e-19
1.969924064e-19
0.0025
4.688819094e-19
5.552204587e-19
0.0025
4.950602089e-20
6.53735782e-20
0.0025
1.788810546e-19
-2.710964049e-19
0.0025
-3.760152839e-19
-4.122859707e-20
0.0025
-2.029832218e-19
1.548283448e-19
0.0025
-2.894483896e-19
-4.716503063e-19
0.0025
-1.22502828e-18
-1.475216594e-18
0.0025
-1.611141025e-18
-1.183737389e-18
0.0025
-1.63610947e-18
-1.171630921e-18
0.0025
-1.356124387e-18
-9.811349553e-19
0.0025
-1.025761949e-18
-7.089168231e-19
0.0025
-1.14319715e-18
-8.921002529e-19
0.0025
-1.667586556e-18
-8.358489285e-19
0.0025
-1.393573178e-18
-3.271001974e-19
0.0025
-9.595597293e-19
-4.762183465e-20
0.0025
-1.277827759e-18
-8.09922414e-19
0.0025
-1.258773048e-18
-9.596156558e-19
0.0025
-1.702277837e-18
-5.424945274e-19
0.0025
-1.096393589e-18
-4.638798776e-19
0.0025
-1.533718977e-18
-7.658776274e-19
0.0025
-1.282624725e-18
-7.370533306e-19
0.0025
-1.3464249e-18
-8.333372348e-19
0.0025
-1.266179617e-18
-3.732367034e-19
0.0025
-1.08425071e-18
-5.137188682e-19
0.0025
-1.14508326e-18
-4.314297907e-19
0.0025
-9.829441464e-19
-8.135902261e-19
0.0025
-9.191933554e-19
-4.678687779e-19
0.0025
-1.143860975e-18
-6.927244426e-19
0.0025
-1.23435002e-18
-4.816178324e-19
0.0025
-1.046807373e-18
-3.293505445e-19
0.0025
-1.134386423e-18
-7.4485183e-19
0.0025
-9.100776533e-19
-2.527679044e-19
0.0025
-1.053459315e-18
-5.891303848e-19
0.0025
-1.184712998e-18
-8.1182744e-19
0.0025
-8.717224792e-19
-4.594622814e-19
0.0025
-1.077575186e-18
-7.452212169e-19
0.0025
-1.16259925e-18
-3.245499914e-19
0.0025
-1.246772178e-18
-6.208353091e-19
0.0025
-1.182433941e-18
-3.87977074e-19
0.0025
-1.08884004e-18
-3.779877512e-20
0.0025
-5.905147986e-19
-2.680135915e-19
0.0025
-1.744380435e-18
-6.596400862e-19
0.0025
-1.126842471e-18
-5.647874961e-19
0.0025
-4.124946532e-19
-2.497963631e-19
0.0025
-8.668391828e-19
-4.652693037e-19
0.0025
-1.025917756e-18
-1.47123976e-19
0.0025
-9.643175861e-19
-1.902528077e-19
0.0025
-1.03815804e-18
-1.038361593e-19
0.0025
-6.700196931e-19