/*--------------------------------*- C++ -*----------------------------------*\
| =========                 |                                                 |
| \\      /  F ield         | OpenFOAM: The Open Source CFD Toolbox           |
|  \\    /   O peration     | Version:  2212                                  |
|   \\  /    A nd           | Website:  www.openfoam.com                      |
|    \\/     M anipulation  |                                                 |
\*---------------------------------------------------------------------------*/
FoamFile
{
    version     2.0;
    format      ascii;
    arch        "LSB;label=32;scalar=64";
    class       surfaceScalarField;
    location    "2";
    object      phiHbyA;
}
// * * * * * * * * * * * * * * * * * * * * * * * * * * * * * * * * * * * * * //

dimensions      [0 3 -1 0 0 0 0];

oriented        oriented;

internalField   nonuniform List<scalar> 
124950
(
0.0025
-2.759152705e-20
1.822673764e-19
0.0025
-4.221351103e-19
4.406193775e-19
0.0025
-1.068845425e-19
2.831049322e-19
0.0025
-2.526433426e-20
-3.86191693e-19
0.0025
-1.158777009e-18
2.637029518e-19
0.0025
-4.367424249e-19
6.551384253e-19
0.0025
-4.181877793e-19
-6.176684355e-19
0.0025
-2.050429141e-19
5.533729601e-19
0.0025
-6.234782504e-21
8.932785205e-20
0.0025
3.298293748e-19
-6.042565265e-19
0.0025
-1.694319156e-18
-1.244714381e-19
0.0025
-9.457099597e-19
7.255258427e-19
0.0025
-8.810659263e-19
-5.634998258e-19
0.0025
-3.53832955e-19
8.880546253e-19
0.0025
-2.557279839e-19
2.417787488e-19
0.0025
3.481866228e-19
-8.296333989e-19
0.0025
-2.354967492e-19
6.408848485e-19
0.0025
-1.343783876e-19
2.333276994e-19
0.0025
2.353857964e-19
-5.651685782e-20
0.0025
6.760406012e-19
-4.118084426e-19
0.0025
-1.577613231e-18
-1.967703481e-19
0.0025
-1.250572674e-18
6.607089195e-19
0.0025
-8.481651778e-19
9.658454482e-20
0.0025
-5.377440732e-19
6.79781349e-19
0.0025
-7.771085324e-19
2.069497653e-19
0.0025
-3.881141588e-19
-5.54982657e-19
0.0025
-1.795643501e-19
9.062299219e-19
0.0025
-1.991891079e-19
2.092925704e-19
0.0025
1.775865997e-19
5.425572284e-20
0.0025
6.354691393e-19
-3.635684915e-19
0.0025
2.437998408e-19
7.68286305e-19
0.0025
-2.102413569e-19
1.805404969e-19
0.0025
-1.683067728e-21
-1.333861577e-20
0.0025
2.351191601e-19
-1.609680487e-19
0.0025
8.015303921e-19
-3.417460228e-20
0.0025
-1.464109482e-18
-2.937502974e-19
0.0025
-1.110778724e-18
5.744990477e-19
0.0025
-7.530016216e-19
2.592657275e-19
0.0025
-5.383655908e-19
6.181771188e-19
0.0025
-8.431511758e-19
2.418586006e-19
0.0025
-1.118036682e-18
2.148431754e-19
0.0025
-2.464101887e-19
8.55897776e-19
0.0025
-4.415574646e-19
2.080133314e-19
0.0025
-3.461846743e-19
1.892356807e-19
0.0025
8.841453987e-20
-2.274333401e-19
0.0025
4.426773778e-19
9.970163311e-19
0.0025
-2.861072816e-19
4.309183e-19
0.0025
-1.427414826e-19
-7.565254755e-20
0.0025
1.650186533e-19
-1.844575866e-19
0.0025
8.468625354e-19
-5.084140665e-20
0.0025
3.691413277e-19
5.975954264e-19
0.0025
-6.337354745e-20
5.732359532e-19
0.0025
-2.118555276e-19
4.574174486e-21
0.0025
5.751038899e-21
-2.529700359e-19
0.0025
5.982236692e-19
-1.382693158e-19
0.0025
7.34453991e-19
1.961709098e-19
0.0025
-1.73430844e-18
-6.405744446e-19
0.0025
-1.109429623e-18
2.678462389e-19
0.0025
-9.725474345e-19
-9.42527266e-20
0.0025
-4.65890348e-19
3.456621268e-19
0.0025
-9.018338693e-19
2.627774785e-19
0.0025
-1.126362497e-18
3.858855364e-19
0.0025
-3.797555264e-19
7.913926673e-19
0.0025
-3.650830855e-19
3.733399014e-19
0.0025
-8.477698056e-19
3.236451193e-19
0.0025
-9.09543552e-19
5.26686309e-21
0.0025
3.512750586e-19
9.179093781e-19
0.0025
-3.566477579e-19
6.816608981e-19
0.0025
-1.669630189e-19
2.442176731e-19
0.0025
-4.145593293e-21
-3.832871905e-20
0.0025
2.990292058e-19
-2.106452949e-19
0.0025
5.785115943e-19
7.079116361e-19
0.0025
-2.535892341e-19
5.810019192e-19
0.0025
-1.701373574e-19
3.541707508e-19
0.0025
1.269578924e-19
-2.357856913e-20
0.0025
7.368333923e-19
-1.752924317e-19
0.0025
5.279762155e-19
-2.026077237e-21
0.0025
1.6643082e-19
1.984541378e-19
0.0025
-1.464172843e-19
2.463474448e-19
0.0025
-4.371241305e-20
3.185102323e-19
0.0025
1.502024177e-19
9.606394143e-20
0.0025
2.801352728e-19
-2.79226541e-19
0.0025
3.702559813e-19
-1.438886232e-20
0.0025
4.742648837e-19
4.667317633e-20
0.0025
-2.249367857e-18
-1.501378805e-18
0.0025
-1.588838227e-18
-3.805355542e-19
0.0025
-1.260499274e-18
-4.959307774e-19
0.0025
-8.851605651e-19
3.597558866e-20
0.0025
-9.570860225e-19
8.785420742e-20
0.0025
-1.086875616e-18
1.076227877e-19
0.0025
-3.977095809e-19
5.649131474e-19
0.0025
-5.483251615e-19
2.934776771e-19
0.0025
-9.359414053e-19
1.857961047e-19
0.0025
-1.119331304e-18
1.902261427e-19
0.0025
-1.153607129e-19
8.226489064e-19
0.0025
-3.779583123e-19
6.523743876e-19
0.0025
-2.390542255e-19
4.881323713e-19
0.0025
-5.146704014e-19
2.2992492e-19
0.0025
-5.246582548e-19
-3.295833997e-19
0.0025
5.688564214e-19
6.58304721e-19
0.0025
-2.539568735e-19
5.90664327e-19
0.0025
-1.009646182e-19
7.137876423e-19
0.0025
1.03145622e-19
2.988532559e-19
0.0025
1.977298381e-19
-2.210564936e-19
0.0025
9.612433981e-20
-3.171579778e-19
0.0025
5.150800629e-20
1.55845993e-19
0.0025
-1.271902927e-19
6.020812021e-19
0.0025
1.614295604e-19
3.858357193e-19
0.0025
2.73917136e-19
3.329598853e-19
0.0025
3.381019196e-19
-1.654331841e-19
0.0025
4.427883201e-19
4.414950419e-20
0.0025
6.786494967e-19
-2.225844106e-19
0.0025
2.461064591e-19
3.77579634e-19
0.0025
3.573683526e-20
2.593827638e-19
0.0025
1.217889161e-19
8.951988658e-20
0.0025
2.022834793e-20
-2.27842943e-19
0.0025
-1.031457437e-19
-1.556149549e-19
0.0025
3.914226004e-20
-5.228341183e-20
0.0025
2.486382475e-19
5.925295404e-20
0.0025
5.471375204e-19
7.406609225e-20
0.0025
-2.130101554e-18
-1.581753332e-18
0.0025
-1.966513855e-18
-9.509670323e-19
0.0025
-1.551277458e-18
-1.195606447e-18
0.0025
-1.476457248e-18
-3.208911176e-19
0.0025
-1.129128281e-18
-5.994720415e-19
0.0025
-1.585290588e-18
-2.726892311e-19
0.0025
-6.315327862e-19
3.367359853e-19
0.0025
-8.611613852e-19
3.332088035e-20
0.0025
-9.253803721e-19
-2.429316024e-19
0.0025
-1.107740552e-18
1.990432469e-19
0.0025
-4.553373327e-19
3.71045912e-19
0.0025
-5.43620089e-19
5.318519944e-19
0.0025
-4.27832241e-19
2.88854103e-19
0.0025
-8.367769732e-19
1.031916218e-19
0.0025
-9.36431002e-19
-2.450637365e-19
0.0025
2.077336859e-19
6.735845336e-19
0.0025
-3.126210398e-19
5.03332426e-19
0.0025
-1.87782486e-19
5.274895619e-19
0.0025
-4.65947087e-20
6.009208842e-19
0.0025
-7.124254053e-19
-1.612936433e-19
0.0025
-5.675475947e-19
-6.120880282e-19
0.0025
-5.827220671e-20
2.006118194e-19
0.0025
4.418765954e-20
6.936937722e-19
0.0025
1.461029106e-19
4.147489207e-19
0.0025
-9.805289032e-20
3.068385079e-19
0.0025
-6.748718956e-20
-6.193444101e-20
0.0025
2.628151822e-19
-6.838457747e-20
0.0025
3.105335905e-19
-6.185427825e-19
0.0025
1.846992257e-19
2.984634693e-19
0.0025
7.274345797e-20
4.625553015e-19
0.0025
1.580521994e-19
3.842203439e-19
0.0025
9.721464255e-20
4.631484095e-20
0.0025
-1.289558911e-19
-1.373224505e-19
0.0025
2.374507714e-19
-1.458829472e-19
0.0025
3.403464979e-19
-7.279760756e-20
0.0025
7.058371333e-19
-1.370386005e-19
0.0025
-1.615860999e-19
2.05538183e-19
0.0025
4.086762972e-19
8.033314938e-20
0.0025
1.231709894e-19
1.207146477e-19
0.0025
-3.967884666e-19
-2.284324312e-19
0.0025
-1.957901602e-19
-3.744741063e-19
0.0025
-2.145600996e-19
-3.005910974e-19
0.0025
1.033803207e-19
-2.423507736e-19
0.0025
1.244546257e-19
3.2713095e-20
0.0025
3.13569478e-19
2.008499391e-19
0.0025
-1.62066083e-18
-1.429744322e-18
0.0025
-1.793980731e-18
-1.047550168e-18
0.0025
-1.622425708e-18
-1.419785225e-18
0.0025
-1.811409011e-18
-7.940753495e-19
0.0025
-1.307504102e-18
-1.024986268e-18
0.0025
-1.733391641e-18
-9.764082769e-19
0.0025
-9.972664061e-19
2.273982275e-20
0.0025
-1.251850617e-18
-4.830280321e-19
0.0025
-1.344164747e-18
-8.4801284e-19
0.0025
-1.461377727e-18
-2.096568367e-19
0.0025
-9.790852782e-19
1.682786203e-19
0.0025
-7.642381221e-19
2.80545609e-19
0.0025
-6.647154104e-19
-3.80820739e-20
0.0025
-8.730249917e-19
-2.680985825e-19
0.0025
-1.481172985e-18
-3.005133001e-19
0.0025
-1.423541798e-19
2.507834224e-19
0.0025
-4.159559233e-19
2.733015177e-19
0.0025
-4.656166471e-19
1.329781194e-19
0.0025
-4.709200575e-19
2.612184358e-19
0.0025
-9.832033369e-19
-2.322413839e-19
0.0025
-1.316446621e-18
-5.14745391e-19
0.0025
-1.761402547e-19
6.281780514e-19
0.0025
8.703701818e-20
5.939793517e-19
0.0025
-7.498345821e-20
4.078395755e-19
0.0025
-4.395467511e-19
8.123442563e-20
0.0025
-4.722689454e-19
1.818328384e-19
0.0025
-3.422777646e-19
-3.785228423e-19
0.0025
-7.881994494e-21
-6.397916093e-19
0.0025
6.366749278e-20
2.887318925e-19
0.0025
1.515330909e-19
4.641330108e-19
0.0025
1.495191537e-19
5.800102243e-19
0.0025
-1.412741887e-19
1.640901126e-19
0.0025
-3.201571847e-19
-4.633395981e-20
0.0025
1.348355671e-19
-3.110165191e-19
0.0025
1.812284237e-19
-3.941501419e-19
0.0025
3.210541319e-19
-5.158538406e-19
0.0025
6.774626487e-20
4.817559004e-19
0.0025
2.237640169e-19
1.064086757e-21
0.0025
2.139064001e-20
3.669741842e-19
0.0025
-3.79339395e-19
-1.074704055e-19
0.0025
-1.200426506e-19
-1.668949805e-19
0.0025
-1.012409684e-19
-3.380100375e-19
0.0025
1.6778695e-19
-3.505810803e-19
0.0025
3.023784383e-19
-2.98889168e-20
0.0025
6.84385041e-19
1.456103053e-19
0.0025
-4.16545838e-19
1.990152033e-19
0.0025
2.613620879e-19
2.579201633e-20
0.0025
3.811410347e-20
-2.724462681e-19
0.0025
-3.946648665e-19
-1.877306181e-19
0.0025
-2.20707788e-19
-1.034065375e-19
0.0025
-1.377424798e-19
1.589626493e-20
0.0025
2.155727424e-19
-2.484366614e-19
0.0025
-1.296603586e-21
-6.507664382e-20
0.0025
-2.104450274e-19
-2.480739918e-19
0.0025
4.148164062e-19
1.597927018e-19
0.0025
-9.420159224e-19
-9.714108775e-19
0.0025
-1.545677373e-18
-1.057405155e-18
0.0025
-1.317626282e-18
-1.111523634e-18
0.0025
-1.830377621e-18
-1.132855857e-18
0.0025
-1.434017636e-18
-1.101865476e-18
0.0025
-1.704789932e-18
-1.259629993e-18
0.0025
-1.316833216e-18
-3.471532987e-19
0.0025
-1.463110308e-18
-8.502171148e-19
0.0025
-1.418900904e-18
-1.165691587e-18
0.0025
-1.510608296e-18
-9.480600124e-19
0.0025
-1.149117168e-18
-3.767069871e-20
0.0025
-1.132341525e-18
-3.334361445e-19
0.0025
-1.074654518e-18
-5.395223183e-19
0.0025
-1.068604629e-18
-4.753779184e-19
0.0025
-2.122649787e-18
-7.510454895e-19
0.0025
-7.633469594e-19
-5.999832069e-20
0.0025
-7.113979008e-19
2.768102072e-19
0.0025
-6.251436294e-19
-1.384448575e-19
0.0025
-6.099929526e-19
-5.000198761e-20
0.0025
-1.072359031e-18
-1.881011534e-19
0.0025
-1.291095176e-18
-5.094805591e-19
0.0025
-3.429163409e-19
6.601881242e-19
0.0025
7.797241261e-20
2.718808515e-19
0.0025
-5.601100023e-19
7.383963842e-20
0.0025
-7.702473353e-19
-2.83736225e-19
0.0025
-7.826154078e-19
6.353925491e-20
0.0025
-9.413848641e-19
-5.234774328e-19
0.0025
-5.211284273e-19
-2.594073828e-19
0.0025
-1.261031358e-19
4.853078294e-19
0.0025
-1.652066593e-19
3.487451429e-19
0.0025
8.285588464e-20
6.967693578e-19
0.0025
-4.252619592e-19
2.45283276e-19
0.0025
-9.574110473e-21
4.598618143e-20
0.0025
-4.148933876e-19
-4.259552451e-19
0.0025
-1.216980681e-19
-6.789382076e-19
0.0025
-5.822088233e-19
-6.865326569e-19
0.0025
4.599701573e-19
7.401759445e-19
0.0025
1.037429235e-19
2.185561703e-19
0.0025
-2.021408079e-19
3.6294637e-19
0.0025
-1.402499621e-19
1.616427448e-19
0.0025
-1.258784753e-19
-1.586615815e-19
0.0025
-2.396503104e-19
-1.697279012e-19
0.0025
-8.634461043e-20
-5.490392252e-19
0.0025
1.395735699e-19
-3.44139415e-19
0.0025
4.471834261e-19
-2.124785025e-19
0.0025
-4.444510752e-19
9.258795191e-22
0.0025
2.123735005e-19
2.871715066e-19
0.0025
1.109546746e-19
-1.014297911e-19
0.0025
-5.855207768e-19
-2.476290806e-20
0.0025
-1.260970883e-19
5.057094965e-20
0.0025
-6.959644597e-20
1.568106465e-20
0.0025
3.601059479e-19
-3.735894141e-19
0.0025
1.255113168e-19
-6.499231499e-20
0.0025
2.042261723e-19
-1.076028648e-19
0.0025
9.866809201e-19
1.548095663e-19
0.0025
-2.618664896e-19
5.382176485e-19
0.0025
-5.912323075e-20
-3.96325915e-19
0.0025
-3.425459661e-19
-3.83166343e-19
0.0025
-6.664561258e-20
-1.919403928e-19
0.0025
-4.113400939e-19
-1.954461141e-19
0.0025
-5.849394787e-20
1.742854991e-19
0.0025
1.71527738e-19
-1.730189839e-19
0.0025
1.556506631e-20
-2.089302999e-19
0.0025
-1.021507205e-19
1.121007005e-19
0.0025
1.604463965e-19
-7.943149041e-20
0.0025
-2.555278931e-19
-1.223925727e-19
0.0025
-6.942756715e-19
-9.715696078e-19
0.0025
-1.213546223e-18
-1.029568331e-18
0.0025
-9.574139832e-19
-6.856116267e-19
0.0025
-1.815884736e-18
-1.347557925e-18
0.0025
-1.412566779e-18
-1.03800422e-18
0.0025
-1.367644567e-18
-7.837536166e-19
0.0025
-1.515542796e-18
-7.598705595e-19
0.0025
-1.46478681e-18
-1.024143448e-18
0.0025
-1.531859032e-18
-1.151685765e-18
0.0025
-1.287419474e-18
-1.127255868e-18
0.0025
-1.269023342e-18
-3.849242163e-19
0.0025
-1.495378755e-18
-7.159847562e-19
0.0025
-1.240540435e-18
-8.148332728e-19
0.0025
-1.191274121e-18
-8.323656793e-19
0.0025
-1.832314016e-18
-8.268567599e-19
0.0025
-1.005924028e-18
-2.788390513e-19
0.0025
-9.285641517e-19
2.873178484e-20
0.0025
-9.019045405e-19
-5.619420091e-19
0.0025
-8.316304421e-19
-2.919924122e-19
0.0025
-1.312500519e-18
-1.312760518e-19
0.0025
-1.266304647e-18
-7.989828123e-19
0.0025
-3.913630257e-19
7.862359195e-19
0.0025
-4.209041375e-19
7.664134689e-20
0.0025
-9.27516577e-19
5.621542191e-21
0.0025
-6.535503775e-19
-3.56487913e-19
0.0025
-7.119808926e-19
-8.914628689e-20
0.0025
-9.993521115e-19
-3.959432081e-19
0.0025
-8.852017294e-19
-2.458952463e-19
0.0025
-5.128750201e-19
2.393712034e-19
0.0025
-4.012018201e-19
9.941741984e-20
0.0025
-3.209566119e-19
4.645336907e-19
0.0025
-7.803692477e-19
2.065423554e-20
0.0025
-1.727190361e-19
8.62324983e-20
0.0025
-5.784427225e-19
-3.114274025e-19
0.0025
-3.094964724e-19
-4.709471959e-19
0.0025
-1.481890435e-18
-6.393706711e-19
0.0025
3.007889182e-19
6.466521982e-19
0.0025
-2.884644272e-19
3.687915433e-19
0.0025
-3.741513162e-19
1.832614566e-19
0.0025
-7.78510177e-21
5.616985095e-19
0.0025
3.492774338e-20
-2.76863777e-19
0.0025
-4.855945377e-19
-1.07490564e-19
0.0025
-3.815870409e-19
-7.523924675e-19
0.0025
-2.842648498e-19
-5.563593635e-19
0.0025
-2.250598496e-19
-6.542364376e-19
0.0025
-1.226674507e-19
-1.823272758e-19
0.0025
6.730191031e-20
3.185620511e-19
0.0025
-6.203323698e-20
2.164723197e-19
0.0025
-3.977070906e-19
-2.151433008e-20
0.0025
-1.150967428e-19
3.415727827e-20
0.0025
-2.207142456e-19
-3.045926772e-19
0.0025
-2.188909689e-19
-5.844769148e-19
0.0025
-3.668239421e-21
-2.877497277e-19
0.0025
1.89344292e-19
-1.156948439e-19
0.0025
5.36478091e-19
-2.592525063e-19
0.0025
-7.166229126e-19
6.388654371e-19
0.0025
-4.924775634e-20
-3.253178395e-19
0.0025
-3.102495661e-19
-2.38402634e-19
0.0025
-1.47790896e-19
1.39695303e-20
0.0025
-4.831285398e-19
-1.003493479e-19
0.0025
-7.680095407e-20
2.691707678e-19
0.0025
2.930325876e-19
-3.587578231e-19
0.0025
1.167866887e-19
-2.829123568e-19
0.0025
-3.841168258e-21
1.150093709e-19
0.0025
4.476202329e-19
-1.148593131e-19
0.0025
1.272015664e-19
-2.017449175e-19
0.0025
-2.488444731e-19
2.699028725e-19
0.0025
-2.603301491e-19
5.635089716e-20
0.0025
-3.248655178e-19
-2.470465126e-19
0.0025
1.047170405e-19
-2.909188401e-19
0.0025
4.049185285e-20
7.26896563e-20
0.0025
-1.810350695e-20
2.100625067e-19
0.0025
-2.542992625e-19
-4.098267788e-19
0.0025
1.40786488e-19
-8.149837582e-20
0.0025
-5.909146879e-20
-1.545458529e-19
0.0025
-3.078267232e-20
-2.671349788e-19
0.0025
-2.043957499e-19
1.837238525e-19
0.0025
2.732371963e-19
-1.818633236e-19
0.0025
-1.127934466e-18
-1.269207404e-18
0.0025
-1.092277438e-18
-1.071644567e-18
0.0025
-5.809862219e-19
-5.823696919e-19
0.0025
-1.540662728e-18
-1.202745963e-18
0.0025
-1.168783102e-18
-1.015061153e-18
0.0025
-1.12715081e-18
-3.263821801e-19
0.0025
-1.524736378e-18
-6.828018227e-19
0.0025
-1.324918027e-18
-8.81822307e-19
0.0025
-1.290879675e-18
-8.862909083e-19
0.0025
-1.160260758e-18
-8.223729891e-19
0.0025
-1.329212735e-18
-5.421154472e-19
0.0025
-1.438875563e-18
-9.534379776e-19
0.0025
-1.400135117e-18
-7.501105181e-19
0.0025
-1.183998385e-18
-9.647958223e-19
0.0025
-1.413264704e-18
-7.740039904e-19
0.0025
-1.114055772e-18
-7.650959074e-19
0.0025
-1.20862934e-18
-3.848260125e-19
0.0025
-1.224365412e-18
-9.564672067e-19
0.0025
-1.189963417e-18
-5.856750811e-19
0.0025
-1.236681517e-18
-3.294223031e-19
0.0025
-9.003011535e-19
-5.607762904e-19
0.0025
-5.175157153e-19
5.254094454e-19
0.0025
-9.031418756e-19
-3.751522346e-19
0.0025
-1.180875091e-18
-1.999695527e-19
0.0025
-8.055515487e-19
-3.219624667e-19
0.0025
-7.295085524e-19
-1.63123076e-19
0.0025
-1.01487576e-18
-3.324362561e-19
0.0025
-1.103809905e-18
-4.50157719e-19
0.0025
-8.833745621e-19
-4.357679219e-19
0.0025
-5.964642173e-19
2.604901e-19
0.0025
-8.482233277e-19
1.343181692e-19
0.0025
-8.796559937e-19
8.587291368e-21
0.0025
-3.483990782e-19
-7.319672127e-20
0.0025
-5.636814879e-19
-2.878499327e-19
0.0025
-5.757014591e-19
-3.098856268e-19
0.0025
-1.553294084e-18
-6.822082565e-19
0.0025
-4.271278359e-20
5.359389577e-19
0.0025
-7.748998015e-19
6.671645921e-20
0.0025
-5.236740447e-19
-9.430193191e-21
0.0025
-2.361762169e-19
6.490076715e-19
0.0025
5.559164663e-20
2.400043048e-20
0.0025
-4.002522586e-19
1.215207003e-19
0.0025
-3.294402897e-19
-4.479300394e-19
0.0025
-7.851963671e-19
-3.016926575e-19
0.0025
-6.996962601e-19
-8.585582089e-19
0.0025
-2.803350148e-20
9.161929825e-20
0.0025
-1.469957192e-19
2.128020425e-19
0.0025
-4.103696181e-19
2.608425528e-19
0.0025
-3.014776912e-19
-6.054798824e-20
0.0025
-4.466627708e-19
-2.283163239e-19
0.0025
-4.249430933e-19
-4.664260357e-19
0.0025
-7.63240438e-19
-6.555448926e-19
0.0025
-1.513073939e-19
-5.665989785e-19
0.0025
-1.959791334e-19
-2.777236881e-19
0.0025
-1.426566259e-19
-6.541941559e-19
0.0025
-8.430585412e-19
3.886384083e-19
0.0025
-5.735452627e-20
-3.008357345e-20
0.0025
-4.515243512e-20
-1.505591845e-19
0.0025
-2.246331303e-19
-2.208948626e-20
0.0025
-5.229331717e-19
-1.626579723e-19
0.0025
-2.253052377e-19
3.302355798e-20
0.0025
3.631194687e-20
-4.79055596e-19
0.0025
-1.342688345e-19
-4.666185486e-19
0.0025
-8.934283106e-20
1.185034145e-20
0.0025
2.816901203e-19
-1.923132772e-19
0.0025
4.400386068e-19
-4.056153067e-19
0.0025
-8.511223803e-19
2.32888786e-19
0.0025
-4.265402621e-19
1.340020509e-19
0.0025
-4.957775833e-19
-2.937101006e-20
0.0025
1.917390973e-19
-1.853891684e-19
0.0025
-1.922132446e-20
5.850264092e-20
0.0025
-1.98142664e-19
1.148590622e-19
0.0025
-3.57788453e-19
-4.494009072e-19
0.0025
1.891573383e-19
-2.314785065e-19
0.0025
-8.298706999e-21
-1.627926901e-19
0.0025
-7.230443557e-20
-3.313775112e-19
0.0025
7.368501176e-21
1.64819652e-19
0.0025
7.460126381e-19
-2.641213569e-19
0.0025
-9.057574561e-21
7.038340982e-19
0.0025
-5.016943652e-19
-7.116329854e-20
0.0025
2.857534822e-21
-1.095359317e-19
0.0025
2.293881071e-19
9.679768707e-20
0.0025
2.240305142e-19
1.537441781e-19
0.0025
8.902931014e-20
1.13209557e-19
0.0025
-2.392406816e-19
1.744851176e-19
0.0025
7.008777272e-20
-5.130344177e-19
0.0025
1.173795798e-19
-3.875610657e-21
0.0025
1.461321542e-20
5.13020826e-20
0.0025
3.203751206e-21
-6.993314993e-21
0.0025
-1.484407387e-19
-6.444461585e-20
0.0025
2.534243779e-19
1.111977805e-19
0.0025
-1.183000617e-18
-1.207466323e-18
0.0025
-1.363507648e-18
-1.062265712e-18
0.0025
-8.398766805e-19
-8.234406319e-19
0.0025
-1.571905748e-18
-1.021847252e-18
0.0025
-8.608696111e-19
-9.473872442e-19
0.0025
-9.03888536e-19
-1.364705455e-19
0.0025
-1.375353501e-18
-7.459070509e-19
0.0025
-1.244889205e-18
-9.077398564e-19
0.0025
-1.165695575e-18
-8.18422607e-19
0.0025
-1.152513559e-18
-4.256688561e-19
0.0025
-1.196937449e-18
-6.486455347e-19
0.0025
-1.193714833e-18
-7.179325024e-19
0.0025
-1.284501422e-18
-4.869789293e-19
0.0025
-1.133441115e-18
-8.17878263e-19
0.0025
-1.347589703e-18
-8.070343687e-19
0.0025
-1.241892376e-18
-9.480296708e-19
0.0025
-1.251763003e-18
-5.533830151e-19
0.0025
-1.199795032e-18
-8.182617548e-19
0.0025
-1.303883851e-18
-5.622777867e-19
0.0025
-9.846211298e-19
-5.031072848e-19
0.0025
-8.065378656e-19
-4.573942708e-19
0.0025
-4.8828592e-19
8.95817415e-20
0.0025
-9.412476228e-19
-7.119366245e-19
0.0025
-1.303536242e-18
-4.970637166e-19
0.0025
-1.142884055e-18
-6.590527249e-19
0.0025
-1.005764436e-18
-3.813457857e-19
0.0025
-8.415277594e-19
-1.857843455e-19
0.0025
-1.34341948e-18
-3.221819041e-19
0.0025
-1.210926323e-18
-7.081143253e-19
0.0025
-8.979863945e-19
1.722522647e-19
0.0025
-1.026370408e-18
-3.582913112e-19
0.0025
-8.920446782e-19
-5.952226862e-20
0.0025
-7.147133345e-19
-1.22687653e-19
0.0025
-6.951077213e-19
-3.302039317e-19
0.0025
-8.09601045e-19
-3.791624609e-19
0.0025
-1.315906092e-18
-4.495551043e-19
0.0025
-6.087846038e-19
5.85127954e-19
0.0025
-8.543044107e-19
-3.633521077e-19
0.0025
-7.54547897e-19
1.515645992e-20
0.0025
-6.935659654e-19
1.889747725e-19
0.0025
-4.288594122e-19
2.646116901e-20
0.0025
-3.248301968e-19
6.549592576e-20
0.0025
-4.927379593e-19
-2.908826713e-19
0.0025
-8.095552626e-19
-2.976253957e-19
0.0025
-6.414607903e-19
-6.569402015e-19
0.0025
-2.985276268e-19
-2.204666212e-20
0.0025
-4.719655108e-19
2.305821063e-19
0.0025
-6.338963227e-19
1.402039736e-19
0.0025
-2.98711096e-19
7.740823438e-20
0.0025
-4.056442775e-19
7.608462807e-20
0.0025
-4.367120652e-19
-1.403447639e-19
0.0025
-6.377311546e-19
-3.843922865e-19
0.0025
-2.759784552e-19
-5.18099219e-19
0.0025
-5.818988971e-19
-4.144628512e-19
0.0025
-8.622744767e-19
-8.432215109e-19
0.0025
-4.79469597e-19
1.590272745e-19
0.0025
-2.187178401e-19
2.060262379e-19
0.0025
-1.29050882e-19
4.591112658e-20
0.0025
-3.695861026e-19
-7.929825922e-20
0.0025
-7.793156577e-19
-4.217804047e-19
0.0025
-5.037901749e-19
-5.774540953e-19
0.0025
-4.654008473e-19
-3.554880562e-19
0.0025
-2.981016659e-19
-4.902408915e-19
0.0025
-9.875902527e-20
-2.045319584e-19
0.0025
-8.142847321e-20
-2.917002007e-19
0.0025
2.03660838e-19
-5.130745924e-19
0.0025
-9.694798752e-19
2.612779341e-19
0.0025
-5.317202095e-19
8.914256466e-20
0.0025
-2.456599772e-19
1.533897571e-19
0.0025
1.427952432e-20
-1.884713241e-19
0.0025
-3.173366505e-19
-1.2746065e-19
0.0025
-3.489688077e-19
-3.900890677e-20
0.0025
-1.70439619e-19
-3.429286021e-19
0.0025
1.050143817e-19
-1.324574191e-19
0.0025
-1.0533373e-19
-8.325648557e-20
0.0025
8.385215324e-20
-1.372077467e-19
0.0025
3.239180776e-19
-1.862827061e-20
0.0025
7.660390532e-19
-2.663559691e-19
0.0025
-1.195077083e-19
1.155144198e-18
0.0025
-6.268605983e-19
7.225811117e-20
0.0025
-2.262434647e-19
-4.299582489e-20
0.0025
2.350197789e-19
1.237421356e-20
0.0025
1.891023269e-19
8.107558466e-21
0.0025
-1.264957636e-19
-3.042328494e-20
0.0025
-7.584792782e-19
1.139750418e-20
0.0025
-2.209528587e-20
-5.127701346e-19
0.0025
2.836188157e-19
-3.476983302e-20
0.0025
9.557103954e-21
7.692419192e-20
0.0025
-3.758026048e-20
3.869955776e-20
0.0025
2.736502971e-19
-3.471047771e-21
0.0025
1.012424593e-18
2.068395391e-19
0.0025
9.694746683e-20
4.247858844e-19
0.0025
-5.459272994e-19
3.281034557e-19
0.0025
2.428259411e-19
-5.112004114e-20
0.0025
-9.639457045e-20
-2.618592291e-19
0.0025
-1.262075933e-19
4.071832589e-20
0.0025
-4.501010234e-20
9.053360525e-20
0.0025
2.190123934e-19
-1.776125608e-19
0.0025
-3.114461431e-19
1.853856233e-20
0.0025
2.115460301e-19
-7.45302956e-20
0.0025
5.582411456e-20
-2.156927204e-19
0.0025
-3.659745678e-20
1.923654355e-19
0.0025
5.482718848e-20
2.096063618e-19
0.0025
8.886515457e-20
-1.720015011e-19
0.0025
4.634922373e-20
3.413327535e-19
0.0025
-5.792327326e-19
-8.355856884e-19
0.0025
-1.551003946e-18
-1.264615168e-18
0.0025
-1.182858865e-18
-1.039916587e-18
0.0025
-1.5117508e-18
-8.211436857e-19
0.0025
-1.020690772e-18
-8.320452166e-19
0.0025
-8.056606603e-19
-2.003764604e-19
0.0025
-1.437601135e-18
-9.560949448e-19
0.0025
-1.362025189e-18
-1.019336576e-18
0.0025
-1.266219371e-18
-6.447031038e-19
0.0025
-1.051930797e-18
-2.523914864e-19
0.0025
-1.286845945e-18
-8.150074749e-19
0.0025
-1.219220472e-18
-7.079533874e-19
0.0025
-1.223900011e-18
-5.465498086e-19
0.0025
-1.010661696e-18
-6.75326427e-19
0.0025
-1.53799516e-18
-6.808622279e-19
0.0025
-1.018796294e-18
-8.622064535e-19
0.0025
-1.173809905e-18
-5.545366883e-19
0.0025
-1.244366216e-18
-6.009641951e-19
0.0025
-1.248639549e-18
-5.697995741e-19
0.0025
-1.03128625e-18
-6.195281945e-19
0.0025
-8.821491978e-19
-6.510405092e-19
0.0025
-7.123752944e-19
-1.667586304e-19
0.0025
-9.271991969e-19
-8.122147344e-19
0.0025
-1.194089527e-18
-5.607312257e-19
0.0025
-1.163872288e-18
-5.127836689e-19
0.0025
-1.082356115e-18
-5.999854622e-19
0.0025
-7.401530583e-19
-1.728264243e-19
0.0025
-1.359362583e-18
-2.8712491e-19
0.0025
-1.207404347e-18
-7.732210709e-19
0.0025
-8.347062725e-19
-1.154351558e-19
0.0025
-8.674250601e-19
-7.325769678e-19
0.0025
-9.86567415e-19
-2.868029696e-19
0.0025
-1.018467646e-18
-3.249995365e-19
0.0025
-9.411994083e-19
-3.502731612e-19
0.0025
-1.077908679e-18
-2.237234076e-19
0.0025
-7.272568076e-19
-1.547215031e-19
0.0025
-1.196357966e-18
4.33962466e-19
0.0025
-9.48647012e-19
-3.997160025e-19
0.0025
-6.244741269e-19
-1.138579931e-19
0.0025
-8.084691176e-19
-1.685734762e-19
0.0025
-1.067020038e-18
-1.331573689e-19
0.0025
-6.261331987e-19
-8.72253471e-20
0.0025
-8.262676953e-19
-3.609756294e-19
0.0025
-8.717100892e-19
-3.373319611e-19
0.0025
-9.351560122e-19
-2.726800453e-19
0.0025
-5.273155886e-19
-3.951337294e-20
0.0025
-6.488961126e-19
3.733739596e-19
0.0025
-7.72040426e-19
1.883099874e-19
0.0025
-4.731297506e-19
2.446645722e-19
0.0025
-4.704806709e-19
2.112204963e-20
0.0025
-5.786930958e-19
-3.665198205e-19
0.0025
-5.345673569e-19
-5.086939231e-20
0.0025
-4.037122134e-19
-4.522552665e-19
0.0025
-5.302229065e-19
-4.603597918e-19
0.0025
-1.090644553e-18
-5.888206823e-19
0.0025
-5.097557817e-19
1.791902833e-19
0.0025
-3.459587313e-19
2.130939815e-19
0.0025
-2.671037565e-19
2.611686622e-19
0.0025
-3.637110771e-19
2.516296746e-19
0.0025
-6.148759877e-19
-2.228236764e-19
0.0025
-5.276468792e-19
-4.129215671e-19
0.0025
-5.736693871e-19
-1.510865872e-19
0.0025
-2.808868096e-19
-4.993779405e-19
0.0025
-2.81264273e-19
-3.941940422e-19
0.0025
-6.73575616e-19
-5.546449936e-19
0.0025
-3.101269641e-19
-6.36924146e-19
0.0025
-6.872189025e-19
3.381650628e-19
0.0025
-4.27431949e-19
7.063223924e-21
0.0025
-1.013213245e-19
2.550196925e-19
0.0025
-1.195382086e-19
-9.718544268e-20
0.0025
-4.910424467e-19
-2.635665321e-19
0.0025
-5.144706589e-19
-3.573002381e-19
0.0025
-1.20035823e-19
-3.190552803e-19
0.0025
-2.987163342e-19
-1.543016017e-19
0.0025
-1.315811771e-19
-1.60853e-19
0.0025
1.991768771e-20
-1.483203759e-19
0.0025
1.25904771e-19
-1.903618158e-19
0.0025
3.653291522e-19
-2.91936144e-19
0.0025
-2.739044491e-19
9.096936629e-19
0.0025
-6.672449233e-19
9.274876692e-20
0.0025
-2.280169772e-19
-2.896272664e-20
0.0025
-1.488927191e-19
-1.497282105e-19
0.0025
-2.061830058e-20
-1.479349741e-19
0.0025
-2.728349464e-19
-1.324858896e-19
0.0025
-6.556501867e-19
-1.769530666e-19
0.0025
-5.115666874e-20
-3.002052263e-19
0.0025
2.545271211e-19
1.522308811e-19
0.0025
2.483145784e-20
1.424855853e-19
0.0025
1.7936338e-20
-8.002659419e-20
0.0025
5.825731351e-19
-3.201176166e-20
0.0025
1.127384001e-18
1.34529037e-19
0.0025
3.579070547e-19
8.466088271e-19
0.0025
-4.399040695e-19
5.297915395e-19
0.0025
1.007507333e-19
1.740561688e-19
0.0025
-1.42789447e-19
-2.403785228e-19
0.0025
-2.777450166e-19
-3.006861421e-19
0.0025
-2.036689137e-19
-8.195237138e-20
0.0025
-2.880745475e-19
-2.333107076e-19
0.0025
-4.293339057e-19
-2.359868578e-21
0.0025
1.633733193e-19
-1.6565313e-19
0.0025
1.508835147e-19
-2.733462604e-19
0.0025
-7.751052754e-20
2.872900949e-19
0.0025
1.351332706e-19
2.856464034e-19
0.0025
5.290090177e-19
-3.027713087e-19
0.0025
6.908311219e-19
7.972600119e-19
0.0025
-7.881085548e-20
2.527689403e-19
0.0025
-3.263965371e-19
6.846049771e-19
0.0025
2.893944342e-19
6.175859611e-20
0.0025
-1.35863445e-19
-9.719755022e-20
0.0025
1.59696212e-19
1.147394808e-19
0.0025
-4.759780039e-20
9.292309597e-20
0.0025
2.513293667e-19
-3.005484161e-19
0.0025
-1.492581588e-19
-2.589451231e-19
0.0025
-2.540395414e-19
6.348014306e-20
0.0025
6.402353597e-21
1.033896391e-19
0.0025
3.903534564e-19
2.966368222e-19
0.0025
1.083368127e-19
-4.232672429e-20
0.0025
1.301022814e-19
-6.485150582e-20
0.0025
-1.272999918e-19
7.457064337e-20
0.0025
-1.722058001e-19
2.856929774e-19
0.0025
-2.807389149e-19
-5.099953156e-19
0.0025
-1.290664905e-18
-1.50922811e-18
0.0025
-1.501480794e-18
-1.03597169e-18
0.0025
-1.594883898e-18
-1.062445929e-18
0.0025
-1.207692836e-18
-9.234253867e-19
0.0025
-1.071127535e-18
-7.506688992e-19
0.0025
-1.173935695e-18
-9.304995017e-19
0.0025
-1.441891519e-18
-8.345101801e-19
0.0025
-1.282493675e-18
-3.598880984e-19
0.0025
-1.055932915e-18
-2.731992621e-19
0.0025
-1.225234358e-18
-8.021075747e-19
0.0025
-1.291987738e-18
-9.184167639e-19
0.0025
-1.488171309e-18
-6.646852661e-19
0.0025
-1.024091472e-18
-5.713314014e-19
0.0025
-1.46591965e-18
-6.373645112e-19
0.0025
-1.221093038e-18
-8.174563334e-19
0.0025
-1.233213178e-18
-7.340686503e-19
0.0025
-1.256703163e-18
-4.5685026e-19
0.0025
-1.062374713e-18
-6.321574333e-19
0.0025
-1.1276048e-18
-5.153244082e-19
0.0025
-1.106499601e-18
-7.394899845e-19
0.0025
-9.602227683e-19
-5.416869274e-19
0.0025
-1.042051385e-18
-7.205405894e-19
0.0025
-1.259570626e-18
-4.855987914e-19
0.0025
-1.115631482e-18
-5.350035043e-19
0.0025
-1.11664198e-18
-7.52601799e-19
0.0025
-8.351321961e-19
-3.504103629e-19
0.0025
-1.268325834e-18
-3.408557424e-19
0.0025
-1.152076892e-18
-6.919333654e-19
0.0025
-8.053884185e-19
-3.452925159e-19
0.0025
-9.381568319e-19
-7.536700248e-19
0.0025
-1.036473351e-18
-3.477260276e-19
0.0025
-1.20683373e-18
-4.193792966e-19
0.0025
-9.963343948e-19
-4.638066697e-19
0.0025
-1.16742266e-18
-1.138333743e-19
0.0025
-5.687916053e-19
-1.704396148e-19
0.0025
-1.544939903e-18
-3.552500729e-19
0.0025
-9.622109221e-19
-5.883947032e-19
0.0025
-5.339361564e-19
-1.938360158e-19
0.0025
-8.245941342e-19
-5.121776533e-19
0.0025
-1.024947267e-18
-1.905649209e-19
0.0025
-8.525614126e-19
-1.824573432e-19
0.0025
-9.818477798e-19
-2.128606721e-19
0.0025