/*--------------------------------*- C++ -*----------------------------------*\
| =========                 |                                                 |
| \\      /  F ield         | OpenFOAM: The Open Source CFD Toolbox           |
|  \\    /   O peration     | Version:  2212                                  |
|   \\  /    A nd           | Website:  www.openfoam.com                      |
|    \\/     M anipulation  |                                                 |
\*---------------------------------------------------------------------------*/
FoamFile
{
    version     2.0;
    format      ascii;
    arch        "LSB;label=32;scalar=64";
    class       volVectorField;
    location    "2";
    object      U;
}
// * * * * * * * * * * * * * * * * * * * * * * * * * * * * * * * * * * * * * //

dimensions      [0 1 -1 0 0 0 0];

internalField   nonuniform List<vector> 
42875
(
(1 3.76381168e-17 2.2932258e-16)
(1 -1.238021056e-16 4.050460535e-16)
(1 -6.792391245e-17 1.605316934e-16)
(1 -2.410126392e-17 -6.347672653e-18)
(1 -4.470530577e-16 2.760498169e-16)
(1 -1.98005485e-16 3.703720445e-16)
(1 -1.766825491e-16 -1.669041194e-17)
(1 -1.009735295e-16 3.140600927e-16)
(1 -4.744858656e-17 1.204001157e-16)
(1 1.549573164e-16 -3.448722883e-16)
(1 -6.692785805e-16 -1.15698875e-16)
(1 -4.952760574e-16 4.052687035e-16)
(1 -3.388684413e-16 -7.304756553e-17)
(1 -1.638547823e-16 4.347647251e-16)
(1 -1.472789234e-16 1.910993708e-16)
(1 1.256356619e-16 -4.587521635e-16)
(1 -1.775887481e-16 3.933125183e-16)
(1 1.807239868e-17 2.169530152e-16)
(1 1.332875692e-16 2.101709718e-17)
(1 3.826799721e-16 -2.128719335e-16)
(1 -6.339547672e-16 -1.673208944e-16)
(1 -7.279387671e-16 3.545708084e-16)
(1 -2.169094138e-16 -6.932474588e-17)
(1 -2.692294905e-16 3.249167992e-16)
(1 -3.963299432e-16 1.516553945e-16)
(1 -1.650675708e-16 -3.107211383e-16)
(1 -1.560035165e-16 4.217898772e-16)
(1 -9.570151134e-17 3.057419826e-16)
(1 1.700822578e-16 5.705721702e-18)
(1 3.314803071e-16 -1.379366012e-16)
(1 -5.353766381e-17 3.994420425e-16)
(1 -1.606031227e-16 3.021795972e-16)
(1 5.311049174e-17 -2.916290027e-17)
(1 2.300298143e-16 6.918959615e-18)
(1 3.95778277e-16 -1.650840439e-16)
(1 -6.719496486e-16 -1.327138656e-16)
(1 -6.554237889e-16 2.552391684e-16)
(1 -1.930727179e-16 -8.628760614e-17)
(1 -2.903067349e-16 3.023232058e-16)
(1 -3.77406772e-16 1.524279902e-16)
(1 -4.157204095e-16 2.448121018e-16)
(1 -1.920452888e-16 4.049834894e-16)
(1 -2.344662608e-16 1.419744256e-16)
(1 -2.301270076e-16 1.685890959e-17)
(1 4.047020381e-17 -3.015225564e-17)
(1 1.085457256e-17 4.630873415e-16)
(1 -1.378380784e-16 3.190532869e-16)
(1 -4.137931548e-17 -1.785895684e-16)
(1 1.119649103e-16 5.754924903e-17)
(1 2.794715041e-16 -4.79485899e-17)
(1 3.105610793e-16 4.125322659e-16)
(1 -3.765378901e-17 3.490633804e-16)
(1 -7.378686169e-17 -8.870247776e-17)
(1 -1.050980421e-16 1.09299504e-17)
(1 3.608729656e-16 -1.24623691e-16)
(1 4.368334595e-16 1.624681329e-16)
(1 -7.548129737e-16 -3.052789802e-16)
(1 -5.441352937e-16 1.075364347e-16)
(1 -4.225028492e-16 -1.277265229e-16)
(1 -3.233553636e-16 1.601696323e-16)
(1 -3.913944575e-16 1.268873537e-16)
(1 -3.899329339e-16 2.407221977e-16)
(1 -1.391656815e-16 3.783775728e-16)
(1 -2.350264043e-16 1.768889137e-16)
(1 -5.132585443e-16 7.663114091e-17)
(1 -3.553761579e-16 6.254297778e-17)
(1 -6.681115289e-17 4.084851619e-16)
(1 -1.065676454e-16 2.80735831e-16)
(1 -9.801404666e-17 -5.356355537e-19)
(1 -8.631130049e-17 2.022556744e-16)
(1 9.846376658e-17 -1.023701429e-16)
(1 3.598577315e-16 2.838983562e-16)
(1 -1.294378878e-16 3.278808877e-16)
(1 -1.298216919e-16 7.242189913e-17)
(1 -3.289636721e-17 9.366257304e-17)
(1 3.525817355e-16 -1.643489102e-16)
(1 1.665442628e-16 5.628629166e-17)
(1 7.562407798e-17 5.402230253e-17)
(1 -3.274257105e-18 2.134478725e-16)
(1 -1.400208291e-16 1.957949494e-16)
(1 6.431605294e-17 1.219058524e-16)
(1 1.773448955e-16 -1.573045703e-16)
(1 2.954513701e-16 3.472543792e-17)
(1 2.592133893e-16 7.222378003e-17)
(1 -9.485290991e-16 -6.120639475e-16)
(1 -6.9949144e-16 -1.386624912e-16)
(1 -5.679849196e-16 -2.644203779e-16)
(1 -4.250057422e-16 2.113911535e-17)
(1 -4.252383638e-16 4.110875905e-17)
(1 -4.871751318e-16 2.976868877e-17)
(1 -1.161051557e-16 2.414756643e-16)
(1 -3.552296464e-16 6.844320699e-17)
(1 -5.175547525e-16 4.69830366e-17)
(1 -3.836082036e-16 7.298555049e-17)
(1 -2.399945835e-16 3.600136604e-16)
(1 -5.742842171e-17 2.310023902e-16)
(1 -1.953656448e-16 1.328752404e-16)
(1 -4.440909348e-16 2.525096387e-16)
(1 -1.539665527e-16 2.331757002e-17)
(1 2.978907444e-16 2.447278303e-16)
(1 -2.108750784e-16 3.124848989e-16)
(1 -2.175279054e-17 2.837648585e-16)
(1 4.175674053e-17 2.725400094e-16)
(1 8.133024361e-17 -1.443713883e-16)
(1 -1.612966056e-17 -4.369109279e-17)
(1 1.258669213e-16 -4.246652861e-17)
(1 -1.020329746e-16 2.795912862e-16)
(1 -2.608479641e-17 8.145936839e-17)
(1 1.088662972e-16 2.923551004e-16)
(1 2.085933075e-16 -5.219807353e-17)
(1 1.454489585e-16 7.719730618e-17)
(1 3.12670726e-16 -6.942271148e-17)
(1 1.070917322e-16 1.680601361e-16)
(1 -1.448988183e-16 1.496629864e-16)
(1 9.502875251e-17 2.666890843e-17)
(1 8.67402894e-17 1.27403135e-16)
(1 7.013466121e-17 6.486991619e-17)
(1 7.914675527e-17 4.048639203e-17)
(1 2.408571731e-16 3.570467451e-17)
(1 4.023291568e-16 7.267018152e-18)
(1 -8.760980338e-16 -6.065919778e-16)
(1 -8.954101165e-16 -3.58319172e-16)
(1 -6.995290155e-16 -6.151638037e-16)
(1 -6.506431362e-16 -1.206468462e-16)
(1 -5.114632652e-16 -2.188033781e-16)
(1 -6.914439449e-16 -1.426535023e-16)
(1 -3.903181095e-16 1.240939062e-16)
(1 -4.022512317e-16 -4.08603384e-18)
(1 -4.285707989e-16 -8.32528522e-18)
(1 -4.968462252e-16 8.993476172e-17)
(1 -2.280597793e-16 1.423058267e-16)
(1 -1.155231382e-16 2.132344991e-16)
(1 -2.577250217e-16 1.694540724e-16)
(1 -4.424254367e-16 9.765299009e-17)
(1 -3.644072577e-16 1.762594689e-16)
(1 2.306458042e-17 2.754549781e-16)
(1 -3.101785851e-16 2.633381717e-16)
(1 -1.465724753e-17 2.838343783e-16)
(1 -2.207953343e-17 2.962511324e-16)
(1 -3.052766988e-16 -1.495346888e-19)
(1 -3.267727426e-16 -2.061213936e-16)
(1 1.110587969e-16 3.393686378e-18)
(1 -3.611612865e-17 2.909911788e-16)
(1 -7.819735065e-17 1.1754229e-16)
(1 6.940092493e-18 3.378293053e-16)
(1 1.469622518e-17 5.962129721e-17)
(1 3.470067077e-17 1.892351007e-17)
(1 1.236840532e-16 -1.765346034e-16)
(1 -1.138939187e-16 1.363395658e-16)
(1 7.325908266e-19 1.538490903e-16)
(1 1.916857398e-16 2.366052958e-16)
(1 6.279587314e-17 1.968077041e-16)
(1 1.18819482e-17 4.099886559e-17)
(1 1.52900728e-16 -2.677303542e-17)
(1 2.392546541e-16 1.894979636e-17)
(1 3.226281922e-16 -9.643024577e-17)
(1 7.356239148e-17 7.15174889e-17)
(1 1.528718676e-16 1.830072441e-16)
(1 2.701255049e-17 9.885524705e-17)
(1 -6.037569545e-17 3.829926042e-17)
(1 -2.181725789e-16 -3.06790331e-16)
(1 -9.017636428e-17 -1.416217394e-16)
(1 -1.487024353e-17 1.289385098e-17)
(1 1.973640422e-16 8.097599056e-17)
(1 3.445675157e-16 1.479326622e-16)
(1 -6.906685367e-16 -5.779086522e-16)
(1 -7.494937262e-16 -3.743579594e-16)
(1 -6.590748129e-16 -6.384706747e-16)
(1 -7.113440375e-16 -2.697723125e-16)
(1 -6.016155435e-16 -4.453310982e-16)
(1 -7.386865387e-16 -3.917569036e-16)
(1 -6.21441389e-16 6.877391463e-17)
(1 -4.541159703e-16 -2.05453172e-16)
(1 -6.472524248e-16 -3.190921424e-16)
(1 -7.26198636e-16 -3.174964918e-17)
(1 -1.504226135e-16 4.763423806e-17)
(1 -3.285454887e-16 1.439322893e-16)
(1 -3.344960856e-16 6.622796674e-17)
(1 -4.145865508e-16 -2.155208915e-16)
(1 -7.641516556e-16 1.387718663e-16)
(1 -2.310359168e-16 8.673270146e-17)
(1 -3.452420068e-16 1.199710468e-16)
(1 -9.180729303e-17 2.227756547e-16)
(1 -2.126111607e-16 9.427047043e-17)
(1 -4.239855388e-16 3.096508689e-17)
(1 -5.303055913e-16 -2.898254331e-16)
(1 7.563174165e-17 2.97368603e-16)
(1 5.799923754e-19 2.876537241e-16)
(1 -1.917497572e-16 1.25194099e-16)
(1 -6.345243421e-17 1.272271298e-16)
(1 -3.558413552e-16 2.352531173e-16)
(1 -2.374334882e-16 -7.155780487e-17)
(1 2.43580165e-17 -2.54890403e-16)
(1 -2.97647405e-16 1.792449682e-16)
(1 5.314784235e-17 1.516016686e-16)
(1 1.554648957e-16 2.737933153e-16)
(1 -1.866013892e-16 1.868144035e-16)
(1 -1.300853367e-16 -5.569393372e-17)
(1 1.373136473e-16 -5.360759257e-17)
(1 6.95143882e-17 -5.148439363e-17)
(1 1.328586227e-16 -3.061442503e-16)
(1 2.192518631e-16 1.054213673e-16)
(1 2.741744777e-17 7.062951106e-17)
(1 -5.560177477e-17 2.285048682e-16)
(1 2.196272026e-17 1.168356498e-16)
(1 -1.671341398e-16 -7.819478681e-17)
(1 5.191530335e-17 -8.025621598e-17)
(1 2.981105879e-17 -4.279141551e-17)
(1 2.084778005e-16 -6.379195265e-17)
(1 3.427765612e-16 5.801852179e-19)
(1 -3.249989094e-16 2.894522207e-16)
(1 2.238930713e-16 1.491494459e-16)
(1 1.035431656e-16 -1.161097231e-16)
(1 -3.079832188e-16 1.328433344e-17)
(1 -3.790663095e-17 -2.540196036e-16)
(1 -2.253925172e-16 -3.155337858e-17)
(1 -3.981027202e-19 -1.081533188e-16)
(1 -6.022062499e-17 -2.169054276e-16)
(1 -1.48747311e-17 -8.721410208e-18)
(1 1.872437865e-16 2.077005329e-16)
(1 -3.533231798e-16 -3.479660091e-16)
(1 -5.534999595e-16 -3.668938789e-16)
(1 -4.529288899e-16 -5.486669802e-16)
(1 -6.220718015e-16 -4.297149066e-16)
(1 -6.282959077e-16 -5.008541616e-16)
(1 -6.919374044e-16 -4.838440385e-16)
(1 -7.559702572e-16 -9.948890574e-17)
(1 -5.003193528e-16 -4.011427158e-16)
(1 -7.028856977e-16 -4.106998359e-16)
(1 -7.016583786e-16 -4.488882747e-16)
(1 -1.914394942e-16 -4.133739728e-17)
(1 -5.634623746e-16 -4.61845135e-17)
(1 -4.781951421e-16 -2.099482962e-16)
(1 -5.769946975e-16 -3.915236392e-16)
(1 -1.01430133e-15 -1.253565598e-16)
(1 -6.672603268e-16 -4.391400918e-17)
(1 -2.730679271e-16 1.563576645e-16)
(1 -2.236390951e-16 9.332503442e-17)
(1 -2.95813051e-16 -8.038130724e-17)
(1 -5.918731097e-16 7.47291339e-18)
(1 -5.804759009e-16 -4.233641302e-16)
(1 7.932759325e-17 3.844477951e-16)
(1 -2.941189434e-17 1.212295793e-16)
(1 -2.886212973e-16 1.134238714e-16)
(1 -1.968246409e-16 -1.56118993e-16)
(1 -4.367021492e-16 1.430905662e-16)
(1 -5.394826597e-16 -1.571829035e-16)
(1 -2.348189991e-16 -6.049125638e-17)
(1 -2.518726623e-16 2.652120185e-16)
(1 6.369659275e-17 2.415246706e-16)
(1 6.206046071e-17 2.02189283e-16)
(1 -3.757013165e-16 2.176604283e-16)
(1 -9.607790441e-17 -8.631309942e-17)
(1 -1.52990607e-16 -3.635879385e-17)
(1 -8.207481018e-17 -2.147505162e-16)
(1 -3.181345675e-16 -2.301042379e-16)
(1 2.24397439e-16 3.950656685e-16)
(1 2.745561206e-17 9.255073571e-17)
(1 -6.985867147e-17 1.896618635e-16)
(1 2.281675958e-17 2.131595805e-16)
(1 -2.078164026e-16 -5.5258502e-18)
(1 -8.300685517e-17 6.132665357e-17)
(1 3.483966248e-17 -1.991977245e-16)
(1 1.290697444e-17 -2.580684658e-16)
(1 2.049612461e-16 -1.1960913e-16)
(1 -1.38690817e-16 3.417470551e-17)
(1 6.964979492e-17 2.858543583e-16)
(1 3.481403516e-17 -8.361295764e-17)
(1 -2.924273881e-16 6.54610352e-17)
(1 6.738329034e-17 -1.518259093e-16)
(1 -1.428550431e-16 6.599502577e-17)
(1 9.941947694e-17 -1.13789018e-16)
(1 2.659482927e-17 -1.596855837e-16)
(1 2.040055377e-16 5.783658758e-17)
(1 3.940101193e-16 1.041366024e-16)
(1 -8.323171375e-17 4.253953205e-16)
(1 -4.894306661e-18 9.776275646e-19)
(1 -6.199033535e-17 -1.210512983e-16)
(1 -8.503299006e-17 -1.719042228e-16)
(1 -2.103917636e-16 -2.238086847e-16)
(1 8.679355593e-18 1.930573658e-16)
(1 1.108455562e-16 9.064547085e-17)
(1 -1.89140838e-18 -5.566586984e-17)
(1 -1.719975294e-16 1.839142863e-16)
(1 2.224347075e-16 -1.610142436e-16)
(1 -8.028651719e-17 6.653310105e-17)
(1 -2.634889348e-16 -4.099526669e-16)
(1 -3.329507984e-16 -3.212663861e-16)
(1 -3.151256588e-16 -3.193635951e-16)
(1 -5.984041617e-16 -5.673971995e-16)
(1 -5.852797012e-16 -4.623158648e-16)
(1 -5.367772516e-16 -2.857597171e-16)
(1 -8.752915059e-16 -2.640163418e-16)
(1 -5.331692251e-16 -5.702042547e-16)
(1 -6.975356807e-16 -4.125415773e-16)
(1 -5.746688599e-16 -5.201829163e-16)
(1 -2.842913177e-16 -2.056725585e-16)
(1 -7.687524834e-16 -2.2174664e-16)
(1 -4.532181847e-16 -3.253128206e-16)
(1 -5.382129533e-16 -5.539207448e-16)
(1 -8.47597154e-16 -3.618009439e-16)
(1 -7.195096056e-16 -1.128196497e-16)
(1 -3.440175779e-16 2.842818417e-17)
(1 -4.026493343e-16 -2.260461761e-16)
(1 -3.345621552e-16 -1.974143831e-16)
(1 -7.866263736e-16 3.030408755e-17)
(1 -5.947452561e-16 -4.939905173e-16)
(1 1.332436334e-17 4.085508096e-16)
(1 -3.378378442e-16 6.093209045e-18)
(1 -2.64508298e-16 1.449733449e-16)
(1 -2.195924689e-16 -2.002695357e-16)
(1 -3.224195953e-16 5.771993135e-17)
(1 -4.675683402e-16 -8.562586621e-17)
(1 -4.023959539e-16 -2.189983611e-17)
(1 -2.771842834e-16 1.113081632e-16)
(1 6.778173851e-17 2.054138818e-16)
(1 -2.056721092e-16 1.023814752e-16)
(1 -4.559493e-16 -6.987770727e-17)
(1 -2.799413826e-16 -8.377746583e-17)
(1 -2.787744117e-16 -6.400394419e-17)
(1 -2.116497535e-16 -2.177090049e-16)
(1 -6.705021394e-16 -6.281493032e-17)
(1 8.006126624e-17 3.318099061e-16)
(1 -2.367749446e-16 1.579430225e-16)
(1 -4.32289425e-17 4.963330011e-17)
(1 -3.026541933e-17 4.077565119e-16)
(1 9.593643404e-17 2.250170307e-17)
(1 -2.711814223e-16 1.522155288e-16)
(1 -9.951068868e-17 -2.775364841e-16)
(1 -2.59602761e-16 -3.120264789e-16)
(1 -8.361179759e-17 -3.067814813e-16)
(1 1.59726875e-16 -4.310173973e-17)
(1 -6.905395064e-18 3.145348429e-16)
(1 -1.755164143e-16 1.067657538e-16)
(1 -1.381113246e-16 7.080221976e-17)
(1 4.436850603e-17 -3.883223858e-17)
(1 -1.820484906e-16 -6.927951769e-17)
(1 -1.577075027e-16 -1.474390783e-16)
(1 2.919491149e-17 -2.543996417e-16)
(1 1.174928929e-16 -9.812014952e-18)
(1 1.689045522e-16 -5.576633423e-17)
(1 -2.165676897e-16 3.638249289e-16)
(1 9.249864603e-17 -9.407262528e-17)
(1 4.208801862e-17 2.778737016e-18)
(1 -1.989905743e-16 3.236512494e-17)
(1 -1.765543646e-16 -8.035759074e-17)
(1 4.16915233e-17 2.545632176e-16)
(1 1.586739528e-16 7.993657208e-18)
(1 7.349960394e-17 -1.385573926e-16)
(1 6.081025099e-18 1.800801763e-16)
(1 4.344558309e-16 -8.048542911e-17)
(1 1.182936495e-16 -7.571009685e-18)
(1 -8.214554923e-17 2.338238619e-16)
(1 -9.10313243e-17 1.50610575e-16)
(1 -2.942819928e-16 -3.23653801e-16)
(1 1.254058749e-17 -2.605905972e-16)
(1 -1.840793647e-16 -4.488420165e-17)
(1 -1.035490477e-16 1.48028506e-17)
(1 3.768979053e-18 3.078480466e-17)
(1 -8.820386342e-17 -1.814199361e-16)
(1 3.445920203e-17 -9.807557327e-17)
(1 -1.199506847e-16 -3.364326007e-17)
(1 -2.605375318e-16 1.370817816e-16)
(1 2.821058486e-16 -2.199858424e-16)
(1 -4.31106856e-16 -5.308971583e-16)
(1 -3.07230771e-16 -3.841311043e-16)
(1 -2.337149773e-16 -3.587374153e-16)
(1 -5.354785411e-16 -4.134774481e-16)
(1 -4.234716306e-16 -4.321379133e-16)
(1 -4.116179756e-16 -1.293776812e-16)
(1 -8.380668984e-16 -2.285935235e-16)
(1 -4.917522901e-16 -5.527103347e-16)
(1 -5.28479764e-16 -2.95123532e-16)
(1 -4.656571656e-16 -2.80508337e-16)
(1 -4.257593124e-16 -1.955176181e-16)
(1 -6.745316513e-16 -4.236838748e-16)
(1 -5.432219546e-16 -3.097614484e-16)
(1 -4.606626513e-16 -4.963249079e-16)
(1 -6.563254951e-16 -3.556621195e-16)
(1 -7.58712724e-16 -3.490087237e-16)
(1 -4.969520669e-16 -2.441248632e-16)
(1 -5.832217192e-16 -3.45352295e-16)
(1 -4.375030362e-16 -3.62403435e-16)
(1 -6.512177433e-16 -1.586941819e-16)
(1 -4.569994056e-16 -2.884247081e-16)
(1 -1.680486975e-16 2.783986495e-16)
(1 -4.488752602e-16 -1.506531648e-16)
(1 -3.054990503e-16 -2.412723541e-17)
(1 -3.530239613e-16 -2.335515786e-16)
(1 -3.161924247e-16 2.039937334e-17)
(1 -4.654640345e-16 -1.177295738e-16)
(1 -5.783790439e-16 -1.525456892e-16)
(1 -3.266914055e-16 -1.511576595e-16)
(1 -1.213469399e-16 2.453946196e-16)
(1 -5.37011957e-16 6.40279159e-17)
(1 -3.003788672e-16 -8.785633765e-17)
(1 -2.183646912e-16 -5.713994274e-17)
(1 -3.406620802e-16 -1.025110369e-16)
(1 -2.995550008e-16 -1.473807622e-16)
(1 -7.165917731e-16 -1.013409765e-16)
(1 -1.60573634e-16 2.713180604e-16)
(1 -3.902001355e-16 3.822378077e-18)
(1 -8.983560435e-17 -7.5295846e-17)
(1 -2.269418639e-16 2.294511112e-16)
(1 9.630254036e-17 8.586860866e-17)
(1 -2.212858717e-16 2.261486105e-16)
(1 -7.051842276e-17 -1.092156663e-16)
(1 -5.439069587e-16 -9.504673328e-17)
(1 -2.633722108e-16 -4.615985337e-16)
(1 8.289192744e-17 9.280419771e-17)
(1 -9.196078425e-17 1.457878539e-16)
(1 -3.508352734e-16 1.386865544e-16)
(1 1.223967714e-17 1.115527887e-16)
(1 -6.998685514e-17 1.236979338e-16)
(1 -1.691722753e-16 -1.941782992e-16)
(1 -2.676896469e-16 -1.809948161e-16)
(1 -5.229512071e-17 -3.048590737e-16)
(1 -1.635992083e-16 -1.220244012e-16)
(1 -9.815003955e-17 -2.450163756e-16)
(1 -2.241916668e-16 2.076978223e-16)
(1 -1.831648037e-17 -8.366743823e-17)
(1 4.22026623e-17 -3.287943509e-17)
(1 -2.047461527e-16 9.255051897e-17)
(1 -1.849356866e-16 -9.860485673e-17)
(1 -7.44169069e-17 8.540613503e-17)
(1 -1.539543249e-16 -1.769557e-16)
(1 -6.434422876e-17 -3.263778507e-16)
(1 -1.37859791e-17 1.663379695e-17)
(1 1.552400294e-16 -8.166260854e-17)
(1 1.534832737e-16 -1.917232074e-16)
(1 -4.574446554e-16 1.368425299e-16)
(1 -1.154291792e-16 1.147528616e-16)
(1 -2.971312849e-16 -1.255464112e-16)
(1 6.955754681e-17 -1.721210687e-16)
(1 -2.500675565e-16 -1.179783601e-19)
(1 -1.587516455e-16 3.043073156e-17)
(1 2.522496504e-17 1.432601277e-17)
(1 -2.062162355e-17 -2.682345202e-16)
(1 -1.707622813e-17 -4.175573784e-17)
(1 -4.636439433e-17 -3.361303359e-17)
(1 5.177150996e-17 -8.734195693e-18)
(1 3.831831735e-16 -2.07514377e-16)
(1 -1.072274332e-16 3.316617932e-16)
(1 -1.219665033e-16 2.135309233e-17)
(1 -6.907712863e-17 -3.558409497e-17)
(1 9.609747522e-17 1.099078617e-16)
(1 2.59805727e-16 -3.036293262e-17)
(1 8.10595914e-17 1.27756452e-16)
(1 -2.927211454e-16 2.203897621e-16)
(1 1.319579278e-16 -3.852445581e-16)
(1 -1.888733857e-16 1.864185174e-16)
(1 1.054074526e-17 -4.186426412e-17)
(1 -3.639050533e-17 -2.229588691e-16)
(1 -6.553731101e-17 7.367673603e-17)
(1 2.0947826e-16 -4.426079868e-17)
(1 -4.660783207e-16 -4.561135171e-16)
(1 -4.938359795e-16 -4.094864071e-16)
(1 -3.540501984e-16 -5.500609157e-16)
(1 -6.235992984e-16 -2.900114276e-16)
(1 -2.075614953e-16 -4.770780197e-16)
(1 -3.412916317e-16 -3.752669938e-17)
(1 -5.897501139e-16 -2.314511897e-16)
(1 -4.471954851e-16 -5.008345266e-16)
(1 -4.837684685e-16 -2.772035979e-16)
(1 -4.518328463e-16 -6.530122624e-17)
(1 -4.733057112e-16 -2.258990748e-16)
(1 -5.066516526e-16 -3.447390653e-16)
(1 -4.916956324e-16 -1.183310117e-16)
(1 -4.249606221e-16 -3.327344645e-16)
(1 -5.715587518e-16 -3.16255091e-16)
(1 -7.083860099e-16 -3.825880996e-16)
(1 -5.090726429e-16 -2.631045267e-16)
(1 -5.80697837e-16 -3.548247508e-16)
(1 -4.801824947e-16 -2.464126304e-16)
(1 -4.348332421e-16 -2.349622732e-16)
(1 -4.232016976e-16 -2.262715696e-16)
(1 -2.340143593e-16 9.221551275e-17)
(1 -4.781877082e-16 -4.072533107e-16)
(1 -5.070345252e-16 -1.327593637e-16)
(1 -5.681450674e-16 -4.140838351e-16)
(1 -3.311875996e-16 -1.24278357e-16)
(1 -2.774297472e-16 -1.384328266e-16)
(1 -6.287813021e-16 -9.400953837e-17)
(1 -3.308033193e-16 -2.933616898e-16)
(1 -3.421020396e-16 1.362836596e-16)
(1 -6.399188864e-16 -1.68760591e-16)
(1 -3.249025546e-16 -1.776510055e-16)
(1 -3.262477797e-16 -3.546838398e-18)
(1 -3.53002229e-16 -1.251406924e-16)
(1 -4.140328299e-16 -1.113206692e-16)
(1 -5.720248257e-16 -2.346425683e-16)
(1 -4.31277614e-16 3.590295706e-16)
(1 -3.919348202e-16 -2.861167702e-16)
(1 -2.479865807e-16 1.656249744e-17)
(1 -4.501884909e-16 -3.994400267e-18)
(1 -5.640389447e-17 1.546454264e-16)
(1 -1.289285425e-16 3.15665742e-17)
(1 -1.895141393e-16 -1.104720253e-16)
(1 -5.418569072e-16 -3.672062235e-17)
(1 -2.8753179e-16 -3.931637945e-16)
(1 1.651439834e-17 8.750256365e-18)
(1 -2.577649343e-16 1.322140707e-16)
(1 -3.457260642e-16 1.4317155e-17)
(1 9.602319857e-18 7.337105532e-17)
(1 -6.025164649e-17 3.052030676e-16)
(1 -9.852692176e-17 3.650795681e-17)
(1 -1.90247806e-16 -1.063801431e-17)
(1 -9.977883943e-17 -1.224358102e-16)
(1 -2.9063773e-16 -1.292920554e-16)
(1 -3.130738039e-16 -3.195998817e-16)
(1 -1.231405621e-16 1.200215543e-16)
(1 -1.079611357e-16 4.650649228e-17)
(1 -6.541751014e-17 -9.843282751e-18)
(1 -2.942538229e-16 8.356933445e-17)
(1 -3.69306325e-16 -1.623848721e-16)
(1 -2.44409337e-16 -3.044570238e-16)
(1 -4.0185631e-16 -1.124576202e-16)
(1 -9.284231178e-17 -3.07465308e-16)
(1 -9.710169247e-17 -1.533681705e-16)
(1 -1.306606947e-16 -1.542339571e-16)
(1 1.737618922e-17 -3.135677213e-16)
(1 -4.551635975e-16 1.32120238e-16)
(1 -9.202793233e-17 1.04607938e-16)
(1 -1.044082044e-16 1.067655122e-16)
(1 2.305182324e-18 -7.800629923e-17)
(1 -2.903561769e-16 -1.143772723e-16)
(1 -2.042171375e-16 -3.225934816e-17)
(1 7.30739503e-17 -6.159000188e-17)
(1 -1.124744588e-16 -1.697823004e-16)
(1 -9.395756231e-17 -6.308619401e-17)
(1 -1.047101432e-17 4.129319469e-18)
(1 1.803415755e-16 -1.067712288e-16)
(1 3.065888805e-16 -1.945109686e-16)
(1 -3.506804691e-16 4.987376341e-16)
(1 -2.929320888e-16 3.778292555e-18)
(1 -1.388812631e-16 -2.436014792e-17)
(1 8.79148328e-17 1.730322746e-16)
(1 2.141650417e-16 7.527473917e-18)
(1 -7.165556244e-17 4.752441147e-17)
(1 -3.837627565e-16 6.98070133e-17)
(1 9.736803847e-17 -3.219550091e-16)
(1 -3.480552132e-17 1.07674793e-16)
(1 -2.857491006e-17 -5.904415024e-17)
(1 -3.827638208e-18 -2.007930882e-16)
(1 2.715142802e-16 8.194160291e-17)
(1 4.392539462e-16 -3.756004369e-17)
(1 6.895673594e-17 6.265678052e-17)
(1 -3.002039683e-16 3.58006148e-16)
(1 5.33243302e-17 -1.091116884e-16)
(1 1.049280569e-16 -5.316685145e-17)
(1 -4.98373845e-17 -1.550513967e-17)
(1 2.103869338e-17 1.731985024e-16)
(1 4.209858528e-17 8.450906081e-18)
(1 -1.28188183e-16 -4.110688267e-18)
(1 1.900471295e-16 -7.179906552e-17)
(1 -6.515900757e-17 -1.375339367e-16)
(1 -4.678728485e-17 1.062214385e-16)
(1 -1.690019332e-16 1.95589973e-16)
(1 8.983450717e-17 -1.436298165e-16)
(1 9.031136729e-17 1.128038962e-16)
(1 -2.992401952e-16 -2.270682192e-16)
(1 -5.191921285e-16 -5.206351205e-16)
(1 -5.589948394e-16 -5.708910916e-16)
(1 -6.994759017e-16 -2.709409793e-16)
(1 -2.924287993e-16 -4.564222471e-16)
(1 -2.984322826e-16 -1.279804855e-16)
(1 -6.659314095e-16 -2.533416183e-16)
(1 -5.040823706e-16 -4.825395905e-16)
(1 -4.120484859e-16 -2.385165343e-16)
(1 -4.272592899e-16 3.749595474e-17)
(1 -4.901286694e-16 -2.360453324e-16)
(1 -4.711469358e-16 -3.586387644e-16)
(1 -4.341628583e-16 -1.596499981e-16)
(1 -4.122042765e-16 -2.619600545e-16)
(1 -5.934220779e-16 -1.994648991e-16)
(1 -5.711356097e-16 -2.672661453e-16)
(1 -4.627004394e-16 -2.792124503e-16)
(1 -5.533153336e-16 -2.897602031e-16)
(1 -5.10312347e-16 -2.204881181e-16)
(1 -4.881302089e-16 -2.650184494e-16)
(1 -3.854857464e-16 -3.074287241e-16)
(1 -3.251018666e-16 -7.203370867e-18)
(1 -5.363591773e-16 -4.171740799e-16)
(1 -4.160545788e-16 -1.902703856e-16)
(1 -5.617427276e-16 -2.763207627e-16)
(1 -3.375001076e-16 -1.481631898e-16)
(1 -2.482884478e-16 -1.669446124e-16)
(1 -5.554537287e-16 -1.201940086e-16)
(1 -2.093221152e-16 -4.027439546e-16)
(1 -2.944695616e-16 -9.349566171e-17)
(1 -6.146973663e-16 -2.837979564e-16)
(1 -4.415973095e-16 -2.729917541e-16)
(1 -4.967832863e-16 -1.296745393e-16)
(1 -3.823837993e-16 -1.859269882e-16)
(1 -5.574712971e-16 -7.851722598e-18)
(1 -3.715896151e-16 -1.626635816e-16)
(1 -6.725290972e-16 2.262912339e-16)
(1 -4.059631601e-16 -2.348859594e-16)
(1 -2.217729259e-16 1.795577014e-17)
(1 -4.084446595e-16 -1.646116992e-16)
(1 -3.030219635e-16 1.445673245e-16)
(1 -2.283092234e-16 -7.87564333e-17)
(1 -2.94152954e-16 -1.433748046e-16)
(1 -4.739051069e-16 -1.411802447e-16)
(1 -4.83245812e-16 -1.40805585e-16)
(1 -7.919408417e-17 -3.761428072e-17)
(1 -2.719865979e-16 1.905564645e-16)
(1 -3.62210828e-16 3.386107354e-18)
(1 -1.909088193e-16 3.78645189e-17)
(1 -4.026858459e-16 9.282408347e-17)
(1 -1.676017607e-16 -1.552918155e-16)
(1 -2.723267357e-16 6.637277244e-17)
(1 -1.258630582e-16 -7.498306761e-17)
(1 -2.53941063e-16 -1.741003769e-16)
(1 -4.5796889e-16 -1.743519513e-16)
(1 -3.417291426e-16 6.695614382e-17)
(1 -1.916849596e-16 -1.883967074e-17)
(1 -1.909806992e-16 5.958484668e-17)
(1 -2.419279694e-16 8.690274556e-17)
(1 -2.486197166e-16 1.031109398e-17)
(1 -2.96577908e-16 -1.344626078e-16)
(1 -2.909572026e-16 -4.979593381e-17)
(1 -1.54177718e-16 -1.711462062e-16)
(1 -1.544233765e-16 -2.507966899e-16)
(1 -3.568372001e-16 -2.461086906e-16)
(1 -1.430554041e-16 -4.307038063e-16)
(1 -2.361419684e-16 1.531797097e-16)
(1 -1.191023079e-16 8.674406348e-18)
(1 -3.769219121e-17 2.030528688e-16)
(1 -4.528910905e-17 1.1642113e-16)
(1 -3.326468352e-16 -1.134401078e-16)
(1 -2.307676971e-16 -2.002875412e-16)
(1 -6.686904436e-17 -1.888049804e-16)
(1 -1.799215644e-16 -9.040828688e-17)
(1 -3.039369176e-17 -7.262954809e-17)
(1 -1.543884812e-17 -5.337180791e-17)
(1 4.028599838e-17 -1.289926724e-16)
(1 1.131607313e-16 -1.164063288e-16)
(1 -3.131513044e-16 2.925843111e-16)
(1 -3.901974157e-16 9.420875776e-17)
(1 -7.800476271e-17 -1.855718876e-17)
(1 -1.717527322e-17 5.400391994e-17)
(1 -3.55361261e-17 -9.12692293e-17)
(1 -1.834424336e-16 6.207247581e-19)
(1 -2.465179987e-16 1.780391523e-17)
(1 1.308169378e-16 -1.657624749e-16)
(1 -2.669168731e-17 1.271082791e-16)
(1 7.507285529e-17 3.568038209e-17)
(1 9.681525565e-17 -5.421795813e-17)
(1 2.889868097e-16 3.233859478e-17)
(1 4.386223671e-16 -6.018698841e-17)
(1 2.01487648e-16 2.350935876e-16)
(1 -2.605778345e-16 4.39123019e-16)
(1 -1.143025717e-16 7.450552878e-17)
(1 6.039715651e-17 -1.255962573e-17)
(1 -6.437447272e-17 -1.926409092e-16)
(1 -1.038531485e-16 -3.880195542e-17)
(1 -3.440373952e-16 -6.488579394e-17)
(1 -2.063187076e-16 -8.316447776e-17)
(1 1.963922597e-16 -4.421752846e-17)
(1 -3.881787355e-17 -1.117361447e-16)
(1 -8.208202035e-17 1.100694151e-16)
(1 2.670755346e-17 2.096852388e-16)
(1 4.462827361e-16 -1.061740319e-16)
(1 3.204004801e-16 1.934144251e-16)
(1 -3.089723664e-17 -3.995809022e-17)
(1 -2.637955844e-16 3.649856481e-16)
(1 2.109445059e-16 -1.243437216e-16)
(1 -2.488369554e-16 7.339931798e-17)
(1 -1.254584784e-16 -2.18673843e-16)
(1 -6.909600209e-17 3.88489672e-17)
(1 1.649312717e-16 -9.460172259e-17)
(1 -2.348911909e-16 -2.006819355e-16)
(1 -9.658951478e-17 8.767179477e-17)
(1 4.957952645e-17 5.63948558e-17)
(1 -7.395239409e-17 -7.023016601e-17)
(1 1.493899203e-16 9.573247033e-17)
(1 -4.4490392e-17 -1.0302028e-17)
(1 -5.224399236e-17 -1.143398874e-16)
(1 -7.990574475e-17 1.541671494e-16)
(1 -2.090130164e-16 -5.831528461e-17)
(1 -1.78819279e-16 -6.148412659e-16)
(1 -6.809962102e-16 -4.409805491e-16)
(1 -8.008925934e-16 -3.778047517e-16)
(1 -4.510796519e-16 -5.553716984e-16)
(1 -4.29979526e-16 -3.39870236e-16)
(1 -6.449877131e-16 -2.345808574e-16)
(1 -5.826722121e-16 -4.006518791e-16)
(1 -3.167475121e-16 -2.038188171e-16)
(1 -4.188540647e-16 3.923094125e-17)
(1 -4.792939665e-16 -2.218443202e-16)
(1 -6.279903577e-16 -5.127511358e-16)
(1 -6.524895213e-16 -2.634328427e-16)
(1 -4.026210143e-16 -1.687622519e-16)
(1 -5.728902757e-16 -1.555380282e-16)
(1 -6.175315404e-16 -2.661059355e-16)
(1 -4.97865999e-16 -4.336149602e-16)
(1 -5.38056373e-16 -2.192338582e-16)
(1 -3.924552578e-16 -1.967396414e-16)
(1 -5.967432594e-16 -1.918944059e-16)
(1 -4.049137566e-16 -3.044863147e-16)
(1 -2.696639594e-16 -1.389535555e-16)
(1 -5.169133028e-16 -3.657863238e-16)
(1 -4.707331835e-16 -1.432237284e-16)
(1 -5.398487781e-16 -2.211620903e-16)
(1 -3.638039329e-16 -1.989706039e-16)
(1 -3.008816948e-16 -1.948575779e-16)
(1 -4.114538744e-16 -2.778275511e-16)
(1 -2.619184496e-16 -3.216839906e-16)
(1 -2.458465136e-16 -1.658504481e-16)
(1 -6.123879743e-16 -2.448893532e-16)
(1 -3.996403847e-16 -2.355579271e-16)
(1 -5.794256724e-16 -1.542572144e-16)
(1 -3.995905707e-16 -3.442186234e-16)
(1 -5.578722673e-16 2.316335822e-17)
(1 -2.83481369e-16 -1.261089999e-16)
(1 -7.853094345e-16 -1.668868814e-16)
(1 -4.1773765e-16 -2.506518892e-16)
(1 -8.362606017e-17 -7.017486285e-17)
(1 -4.341177365e-16 -3.44024659e-16)
(1 -4.224703412e-16 2.493002838e-17)
(1 -4.151727502e-16 -1.724322295e-16)
(1 -3.588678099e-16 -9.316774432e-17)
(1 -2.743937694e-16 -1.531113325e-16)
(1 -6.102588659e-16 -3.439957566e-17)
(1 -2.959954709e-16 1.048931302e-17)
(1 -3.499974535e-16 1.149705922e-16)
(1 -3.388171481e-16 -8.41512709e-17)
(1 -2.934281694e-16 -1.488485706e-16)
(1 -6.163408767e-16 -2.791159671e-17)
(1 -3.553891465e-16 -2.161161895e-16)
(1 -4.152796684e-16 -1.472760769e-17)
(1 -2.799860441e-16 -1.532112831e-16)
(1 -3.3092805e-16 -1.466816731e-16)
(1 -4.748037646e-16 -8.60580911e-17)
(1 -3.040857532e-16 1.347271363e-16)
(1 -2.718379927e-16 -2.938054695e-17)
(1 -2.675109703e-16 1.865660232e-16)
(1 -1.934201665e-16 1.792357285e-16)
(1 -4.725856194e-17 1.947739253e-16)
(1 -3.988435178e-16 -6.782311769e-17)
(1 -1.85063292e-16 -2.135446228e-16)
(1 -2.504240078e-16 -2.134101876e-17)
(1 -1.913312523e-16 -2.743083694e-16)
(1 -4.581581974e-16 -2.052017892e-16)
(1 -3.371334541e-16 -3.829142468e-16)
(1 -1.277869848e-16 2.330054078e-16)
(1 -1.50992095e-16 8.640003595e-17)
(1 -5.049427975e-17 2.236238395e-16)
(1 -4.851616108e-17 1.727834489e-16)
(1 -2.213385847e-16 1.559639546e-16)
(1 -1.599216809e-16 -1.171862172e-16)
(1 -1.845661103e-16 -8.06672432e-17)
(1 -1.246073554e-16 -3.092312417e-17)
(1 -9.674910436e-17 -2.100283701e-16)
(1 -1.971736388e-16 -1.267879713e-16)
(1 -6.619866432e-17 -2.599682327e-16)
(1 -1.098238712e-16 -6.806898628e-17)
(1 -2.936204732e-16 1.916101006e-16)
(1 -2.386172982e-16 1.265331235e-16)
(1 -4.218080875e-17 3.503310384e-17)
(1 -5.456485238e-17 8.014885003e-17)
(1 -8.135820775e-17 -1.005611101e-16)
(1 -1.904090888e-16 -5.351611754e-17)
(1 -8.383482809e-17 -6.414466065e-17)
(1 -1.718753924e-16 -1.795757542e-17)
(1 -7.690838015e-17 -6.22722365e-17)
(1 -2.93909921e-17 -6.021019848e-17)
(1 -1.194438581e-17 -9.197144652e-17)
(1 9.59687171e-17 -3.644815937e-17)
(1 1.593732202e-16 -1.816911406e-16)
(1 8.477016417e-17 2.766861178e-16)
(1 -1.82929011e-16 4.049316368e-16)
(1 -9.046444911e-17 9.292509602e-18)
(1 -1.769574305e-16 1.82116613e-17)
(1 -3.462955177e-17 -2.177478598e-16)
(1 -1.16937673e-16 -7.184663346e-17)
(1 -3.262209146e-16 -8.30727873e-17)
(1 -2.360774293e-16 -1.313784246e-16)
(1 1.508657469e-16 -1.569511842e-17)
(1 -7.904432597e-17 4.902447462e-17)
(1 -6.728697545e-17 1.226258823e-16)
(1 2.09149352e-16 -2.028670343e-17)