/*--------------------------------*- C++ -*----------------------------------*\
| =========                 |                                                 |
| \\      /  F ield         | OpenFOAM: The Open Source CFD Toolbox           |
|  \\    /   O peration     | Version:  2212                                  |
|   \\  /    A nd           | Website:  www.openfoam.com                      |
|    \\/     M anipulation  |                                                 |
\*---------------------------------------------------------------------------*/
FoamFile
{
    version     2.0;
    format      ascii;
    arch        "LSB;label=32;scalar=64";
    class       volScalarField;
    location    "0.6";
    object      p;
}
// * * * * * * * * * * * * * * * * * * * * * * * * * * * * * * * * * * * * * //

dimensions      [0 2 -2 0 0 0 0];

internalField   nonuniform List<scalar> 
42875
(
-8.12325618e-16
-1.556227478e-15
-9.307605605e-16
-1.018544705e-15
-1.947247928e-15
-1.55869248e-15
-7.410616986e-16
-5.011815158e-16
-8.492331226e-16
-5.969251762e-16
-9.490909486e-16
-1.544904214e-15
-8.433989344e-16
-1.073121918e-15
-9.695055784e-16
-1.55807578e-15
-4.8901895e-16
-5.859904532e-16
-7.403682405e-16
-1.439716068e-16
-4.04067211e-16
-1.289831826e-15
-1.342161475e-15
-1.581394084e-15
-9.920147802e-16
-1.426596454e-15
-1.097342526e-15
-9.722474232e-16
-1.016976551e-15
-6.379577634e-16
-4.318985451e-16
-1.000860179e-15
-6.868857077e-16
-5.514574323e-16
1.352136078e-16
-1.40852776e-16
-4.876111178e-16
-5.512347753e-16
-1.594468483e-15
-1.202591939e-15
-8.861846561e-16
-1.258170305e-15
-1.457633648e-15
-1.351717539e-15
-1.207939287e-15
-1.558844191e-15
-1.145624568e-15
-7.514216154e-16
-5.965859047e-16
-1.076582434e-15
-9.164019854e-16
-9.12535344e-16
-7.90842002e-16
-5.656344913e-16
-7.117023334e-16
3.23158123e-16
-6.644246736e-16
-1.027276788e-16
-6.671885498e-16
-8.119244563e-16
-6.614071409e-16
-3.715070669e-16
-1.347436443e-15
-1.252135445e-15
-1.190572351e-15
-1.454033944e-15
-1.272167054e-15
-1.171074191e-15
-1.321001167e-15
-7.694055634e-16
-1.054571841e-15
-1.025288223e-15
-1.083555776e-15
-7.793925834e-16
-7.772692818e-16
-4.23893044e-16
-6.001994334e-16
-8.729550689e-16
-1.336292493e-15
-7.108992951e-16
-7.762073961e-16
-1.117055088e-15
-5.23106243e-16
1.299864462e-16
-9.900432742e-16
-3.028073653e-16
-5.398600898e-16
-1.0719098e-16
-3.966480539e-16
-6.711588318e-16
-6.442378865e-16
-7.588214252e-16
-2.63680659e-17
-5.503326829e-16
-1.214896647e-15
-1.346984968e-15
-1.207265274e-15
-1.017706832e-15
-1.171845091e-15
-9.637503142e-16
-1.000947373e-15
-1.273423049e-15
-1.141777253e-15
-5.073311996e-16
-1.074185081e-15
-1.003423519e-15
-6.820667566e-16
-9.104951173e-16
-8.171946439e-16
-7.005571046e-16
-2.863247482e-16
-2.39077842e-16
-5.22287756e-16
-1.04982551e-15
-9.609956318e-16
-1.06036379e-15
-6.468943936e-16
-7.990750276e-16
-6.323370631e-17
4.995884022e-16
-1.175060793e-15
-8.244650055e-16
-7.259437672e-17
-4.646675257e-16
-3.527913454e-16
-1.698652308e-16
-6.011834695e-16
-4.785498538e-16
-2.99006745e-16
-6.507804185e-16
-6.333330483e-16
-1.17987555e-15
-1.015868717e-15
-7.485165048e-16
-3.478289378e-16
-1.537615475e-15
-1.073790483e-15
-1.390963589e-15
-8.410996141e-16
-7.776185005e-16
-1.487213377e-15
-9.470538558e-16
-8.383887549e-16
-1.094819341e-15
-1.613171914e-15
-7.147051294e-16
-4.811492302e-16
-7.383959791e-16
-9.059784058e-16
-1.003137282e-15
-6.115635144e-16
-1.080165115e-15
-7.612707123e-16
-2.168021928e-16
-1.95656892e-16
-9.20353354e-17
-3.650735703e-16
-1.020928596e-15
-1.016419862e-15
-1.130757435e-15
-5.224650013e-16
-1.138440768e-15
-1.001558857e-15
1.927299684e-16
6.929676957e-16
-1.325481961e-15
-1.035345603e-15
-5.571560842e-16
-9.057049342e-16
-4.031897284e-16
1.824714026e-16
-6.669826207e-16
-4.534868593e-16
-2.641980075e-16
-1.756624676e-16
-2.316512645e-16
-2.998839548e-16
-4.180240534e-16
-3.804591374e-16
-1.731858623e-16
-1.074676967e-15
-6.9261577e-16
-6.370487496e-16
-8.198663369e-16
-5.378145838e-16
-5.266755268e-16
-1.135140876e-15
-1.049309056e-15
-9.837154362e-16
-1.311934947e-15
-7.955539798e-16
-9.39159865e-16
-1.207061923e-15
-5.702631553e-16
-8.380659217e-16
-7.427522934e-16
-9.189983431e-16
-8.440181151e-16
-3.058935508e-16
-1.363018319e-16
-1.2897851e-16
-1.070926612e-15
-1.058075707e-15
-1.166974624e-15
-5.823714012e-16
-8.606369695e-16
-1.743719658e-16
-6.058226996e-18
9.714043947e-17
-2.417288435e-16
-1.632914414e-16
-7.784658071e-16
-6.159553475e-16
-1.287942131e-15
-6.823354888e-16
-4.424525556e-16
-3.882131111e-16
-5.101029055e-16
-1.415848387e-16
5.049200478e-16
-8.149946707e-16
-9.346900473e-16
-1.067057094e-15
-9.926865136e-16
-6.224932454e-16
-6.341740315e-16
-3.432284507e-16
-7.192828029e-16
4.712377496e-19
4.750517113e-16
-2.996251567e-16
-2.280600281e-16
-4.714566818e-17
6.001241151e-17
-1.628960049e-16
-5.900847061e-16
-2.515177812e-16
-2.653273529e-16
-6.151250991e-16
-2.575076269e-16
2.495758983e-16
-4.162848616e-16
-6.239792074e-16
-7.073983844e-16
-6.70636624e-16
-7.026525043e-16
-5.522073411e-16
-4.880939247e-16
-8.323611303e-16
-7.873652298e-16
-1.000125899e-15
-8.399830251e-16
-6.755674895e-16
-9.098758827e-16
-6.16713348e-16
-8.271666453e-16
-7.8856324e-16
-3.52348099e-16
-6.12158253e-16
-7.032464308e-16
-1.00384029e-15
-3.150679774e-16
2.329173807e-16
2.34937791e-16
5.302264453e-17
-1.176536473e-15
-1.053162386e-15
-1.250171288e-15
-9.919218979e-16
-4.958688847e-16
-3.488826428e-16
-1.992008202e-16
-9.733649247e-17
2.707315949e-16
-2.506176777e-16
-4.751175599e-16
-7.863344936e-16
-6.671962681e-16
-2.046130905e-16
-9.342582924e-16
-3.288388179e-16
1.2610623e-16
-8.097636765e-16
2.455625471e-16
4.926649772e-17
4.534090232e-16
-3.031674461e-16
-7.064552554e-16
-6.560574904e-16
-8.785991035e-16
-9.833911472e-16
-1.076573863e-15
-5.839400065e-17
-9.482831975e-16
-5.600003594e-16
-4.041345531e-16
-6.369474491e-16
-7.444302974e-17
-2.397259553e-16
-9.120431353e-17
-3.367176186e-16
-1.491015724e-16
-3.2832856e-16
-2.077243258e-16
-4.995621176e-16
2.471610194e-16
6.343727665e-16
-3.290119283e-16
-3.184973741e-16
-1.527689562e-16
2.550768364e-16
-2.502506228e-16
-9.03754269e-17
3.330764179e-16
-8.104736e-16
-4.152326892e-16
-5.744364248e-16
-3.686822987e-16
-5.469179546e-16
-1.073852685e-15
-4.073377737e-16
-3.694756806e-16
-4.477992053e-16
-3.776270983e-16
-3.77444195e-16
-8.678752427e-16
-8.934018762e-16
-5.678294106e-16
-2.69838738e-16
-1.716356588e-16
-2.689713078e-16
-5.200907209e-16
-5.022976335e-16
-4.713318307e-16
-5.952913296e-16
-6.868096213e-16
-7.431652563e-16
1.500312779e-16
2.554439985e-16
4.39080458e-16
3.124388385e-17
-1.276966037e-15
-7.488251476e-16
-6.785282691e-16
-8.603692329e-16
-6.914421123e-16
-4.116444771e-16
-3.45805366e-16
-1.18328731e-16
2.064669184e-17
-6.205975485e-17
-7.375234343e-17
-4.346993656e-16
-1.10049472e-15
-6.109939313e-17
-1.206304331e-16
-2.98936602e-16
-6.300246423e-16
-5.587895872e-16
2.04523288e-16
5.242064805e-18
-3.083286621e-16
2.524617945e-16
5.540904149e-17
9.309555855e-17
-6.257004606e-16
-2.117264421e-16
-5.784151026e-16
-8.581108904e-16
-9.081479257e-16
-6.476973211e-16
-9.141181251e-16
-9.294329972e-16
-1.232491273e-15
-2.582220428e-16
-4.453439793e-16
-7.237684714e-16
-3.838050154e-16
-5.04456023e-16
1.272745155e-16
-4.704402995e-16
-1.137143992e-16
-2.147030226e-16
1.18696781e-16
-5.248491299e-17
-2.669004804e-16
-2.758472757e-16
-2.747400672e-16
-2.650477303e-17
1.291043011e-17
4.663213798e-16
5.891516542e-16
-7.221927701e-16
-2.160782248e-16
6.254309076e-17
1.362349715e-16
-2.675692486e-17
-3.108462841e-16
2.853841622e-16
5.07056855e-16
-9.557011734e-17
-2.564708179e-16
-3.072143495e-16
-4.099993118e-16
-3.379842163e-16
-4.365274441e-16
-5.975620582e-16
-2.36673173e-16
-3.516946825e-16
-2.718582853e-16
4.753505004e-17
-2.435764853e-16
-7.218373062e-16
-7.956563651e-16
-7.141570211e-16
-4.039576894e-16
-1.154661924e-16
3.105278304e-16
1.004756899e-16
-6.030803857e-16
-4.384065202e-16
-1.029471162e-16
-7.523813038e-16
-1.965497202e-16
-5.66020862e-16
-2.187156852e-16
2.827905962e-16
1.959839959e-16
3.350694331e-16
-2.80217953e-16
-7.76544796e-16
-8.350163605e-16
-8.843384655e-16
-8.538573103e-16
-4.656269314e-16
-6.709511774e-16
6.182623979e-17
-3.61488716e-16
-4.677731557e-16
1.5121521e-16
-1.168901269e-16
3.870592868e-17
4.938926463e-16
-9.815569623e-16
-2.643040597e-16
1.363641599e-16
-9.313226511e-17
-8.778767787e-16
-3.380901032e-16
-1.540940477e-16
6.08447251e-17
-8.265035352e-17
2.562588714e-16
-4.605471163e-16
1.264232672e-15
2.54408126e-16
-3.309769131e-16
-1.028647326e-16
-3.146240607e-16
-5.531765419e-16
-9.763262262e-17
-7.06595313e-16
-8.021724842e-16
-7.453153055e-16
-1.143599944e-15
-9.333272326e-16
-6.852743968e-16
-7.877321276e-16
-7.64193142e-16
-8.639828831e-16
-3.560221308e-16
-4.953366393e-16
-4.95905474e-16
-3.193674352e-16
-4.220781386e-16
-3.598946468e-16
-1.970803981e-16
-1.156687769e-16
-4.322549552e-16
-3.385879812e-17
-1.442838117e-17
1.969079808e-16
-2.068772692e-16
-2.93561205e-17
-1.917024886e-16
-1.083159505e-16
-9.990419079e-17
1.975297939e-16
1.597675169e-16
3.191558203e-16
7.346036102e-16
-1.843932168e-16
1.054764144e-16
-3.640519027e-17
6.966637995e-16
7.538738837e-17
-4.70501282e-17
-1.587660136e-17
2.966898403e-16
5.47372518e-16
-3.760686596e-16
-1.910659646e-16
9.313440309e-17
-6.901295283e-17
-4.378337846e-16
-5.023967709e-16
-7.200554464e-16
-3.104482044e-16
-3.703491638e-16
3.787363902e-16
3.210257267e-16
-2.750009113e-16
-2.348463223e-16
-4.058784903e-16
-2.837117157e-16
-4.798865848e-16
-3.230252371e-16
4.706363968e-16
1.226603574e-16
1.086605352e-16
-5.433940848e-17
-1.41513928e-16
-2.947667551e-16
-2.958527291e-16
-3.983705977e-16
-2.340806971e-17
-1.452593065e-16
1.729886601e-16
-3.203347453e-17
1.598671617e-16
4.2165576e-16
8.394169201e-17
1.545473776e-16
-4.828977995e-16
-4.737264995e-16
-7.671612689e-16
-5.98738503e-16
-4.816625039e-16
1.003858674e-16
-6.268278116e-16
-4.112914038e-17
-4.086643854e-16
-2.006584678e-16
-2.448524445e-16
-4.932067736e-17
1.183988914e-16
3.108747949e-16
-6.445774688e-16
-9.459073507e-17
-3.780832293e-16
-3.201793965e-16
-3.244726727e-16
4.822993123e-18
1.21151229e-16
5.847383297e-16
-8.034099393e-17
1.711527081e-16
3.309477172e-16
3.490839036e-16
1.308226963e-15
-1.016668671e-15
-3.859171262e-16
-3.708246642e-16
-5.332880108e-16
-8.741775368e-17
-8.701426344e-17
-6.442187311e-16
-4.881294909e-16
-2.749905912e-16
-1.04489779e-17
-4.335548407e-16
-6.094243207e-16
-8.690864476e-16
-8.738015089e-16
-4.384358819e-16
-5.69889712e-16
-6.091894057e-16
-6.294314694e-16
-9.269452675e-16
-8.426918702e-16
-5.407706068e-16
-2.642181774e-16
-1.85077153e-16
-3.09337106e-16
-5.503141076e-16
-8.185830397e-16
-4.045585944e-16
-6.524001087e-16
1.835734258e-16
-3.835653272e-17
-2.512660706e-16
-5.115594197e-16
-3.978994943e-16
3.379861827e-17
-3.184126906e-17
4.160865954e-17
-8.047806274e-17
1.018187128e-16
-1.388248675e-16
1.948364642e-16
2.964041764e-16
4.720028811e-16
1.256256122e-16
4.798433096e-16
8.217030873e-16
-3.056506952e-16
-2.679808379e-16
6.18239508e-17
4.539518459e-16
4.996043316e-16
-7.645784711e-17
2.270354793e-16
2.056560979e-16
3.30620896e-16
6.803454766e-16
1.137364967e-16
-2.329896125e-16
-2.187402644e-16
2.007752581e-16
-2.276448531e-16
-4.427627661e-16
-2.981184838e-16
-4.353023408e-16
-3.448882372e-16
3.838885544e-16
4.305090924e-16
-1.263361477e-16
-2.026654204e-17
-5.836300206e-17
4.311455408e-17
-2.164442585e-16
-2.851724615e-16
-2.36640327e-16
-8.401540627e-17
4.835789554e-16
-4.675258206e-17
4.341438541e-16
2.476497927e-16
-3.926662893e-16
-1.800441061e-16
2.567261366e-17
-1.798473658e-16
-2.030028028e-16
1.314755541e-17
-5.037745787e-17
4.813780014e-17
1.989586233e-16
5.650408052e-17
1.743823831e-16
2.564550483e-16
1.601539787e-16
9.693771958e-18
-4.594094233e-17
-6.372114566e-16
-6.488352423e-16
-2.043673329e-16
-2.293767993e-17
-3.673561803e-16
-2.917134602e-16
-5.990429393e-16
-8.879466099e-17
-2.191818894e-16
-2.899731095e-16
7.46428703e-18
3.335998864e-16
-9.389198338e-17
-2.423502667e-16
-2.890712489e-16
-4.61885036e-16
-6.510218355e-16
2.922170687e-16
1.598176211e-16
3.673558353e-16
-5.785584002e-17
4.332347614e-16
3.569558651e-16
5.454410738e-16
5.239721009e-16
4.087683415e-16
1.075568283e-15
-1.335809776e-15
-7.914270492e-16
-5.805585244e-16
-3.715969627e-16
-4.738097791e-16
-2.182545269e-16
-7.196342544e-16
-2.645482359e-16
-2.421188627e-16
-2.473142476e-16
-2.986366652e-16
-9.292067372e-16
-7.580205982e-16
-6.628867468e-16
-3.845407856e-16
-5.776344398e-16
-1.300004824e-16
-1.040653829e-15
-1.068331497e-15
-7.897643227e-16
-4.952967274e-16
-5.236665627e-16
-4.728489554e-16
-9.012871089e-16
-1.03028361e-15
-9.328464788e-16
-5.124707495e-16
-4.417976091e-16
1.06342009e-16
5.111925769e-18
-3.273584184e-16
-2.338796216e-16
-2.578703295e-16
-4.815549455e-16
-2.402172444e-16
-7.412704838e-16
5.89645453e-17
-4.563837005e-16
-1.364310034e-16
-3.925005648e-16
-2.546955292e-16
9.527523563e-17
2.257056289e-16
-1.821939426e-16
2.747191684e-16
2.444346195e-16
1.601556167e-16
1.423160962e-17
1.315385298e-16
3.551043361e-16
2.879834219e-16
3.99260722e-16
4.38815382e-16
9.877343962e-16
6.658253107e-16
-1.798086594e-17
5.813526176e-17
-1.664448909e-17
5.033806352e-16
1.2717578e-16
1.252620927e-16
1.840445442e-16
4.568182897e-16
1.628604215e-16
8.491624721e-16
9.188508662e-16
2.432247558e-16
4.498480521e-16
-4.91145259e-17
2.874053451e-16
-9.772897243e-17
-2.545253598e-16
-4.269278119e-16
-4.325841691e-16
-1.070514761e-17
3.425937754e-16
4.329018712e-16
4.611700831e-16
1.116351585e-16
-2.337479844e-17
1.606871062e-16
1.085517925e-16
7.425305782e-17
-1.911804527e-17
6.985294577e-17
-3.546153247e-16
2.536209802e-16
2.33278583e-16
2.164951842e-16
8.126112696e-16
1.548850231e-17
-2.803103724e-16
-4.011458439e-16
-5.673809597e-17
-3.384872427e-16
3.619621455e-17
-2.540473944e-16
-1.632346443e-16
-1.059774406e-16
-1.21078737e-16
1.349395648e-16
1.953252284e-16
3.741972128e-16
6.969925677e-16
4.928925171e-16
2.069289988e-16
-4.693624494e-16
-4.258722115e-16
-6.109137442e-16
-2.652213732e-16
-3.380276667e-16
-5.03405022e-16
-2.147300963e-16
-2.858596179e-16
-3.413307321e-16
-1.020929396e-16
-1.079062259e-16
9.247666938e-17
4.304420105e-16
7.386126505e-16
4.732838291e-16
-2.925096726e-16
-1.170460399e-16
-1.628991578e-16
1.87398166e-17
-1.488677552e-16
4.317962199e-16
1.108741776e-16
7.349677134e-16
-3.623841727e-16
2.050476663e-16
5.10985341e-16
7.425271821e-16
1.105997741e-15
1.010164844e-15
1.246013482e-15
-1.447589781e-15
-9.817637522e-16
-8.25328957e-16
-7.586289565e-16
-5.897954225e-16
-6.016253097e-16
-1.054866574e-15
-3.882785807e-16
-6.43874811e-16
-2.515602514e-16
-2.918074356e-16
-8.383942314e-16
-5.586893545e-16
-2.104086972e-16
-5.934385301e-16
-5.820126402e-16
-4.315573128e-16
-9.292309041e-16
-4.268529449e-16
-5.750086889e-16
-4.385607739e-16
-8.180926067e-16
-6.08252175e-16
-9.445020398e-16
-1.25224425e-15
-7.612259749e-16
-7.081958599e-16
2.156962002e-16
-4.311210732e-16
-1.986202231e-16
-5.642407687e-16
-7.927325748e-16
-8.520344909e-16
-5.394835888e-16
-6.820584669e-16
-5.521245776e-16
-1.668260002e-16
-2.79914933e-16
-8.215121659e-17
-2.638575091e-16
-5.101349291e-16
-7.572872607e-16
-4.084719815e-16
-2.817997821e-16
-3.272808052e-16
1.814005259e-16
1.013634352e-16
-4.035551872e-16
-2.880849819e-16
-4.531597792e-16
-1.926274199e-16
4.352267193e-17
-3.835303044e-16
5.003408799e-16
-9.493220265e-17
4.810024469e-16
1.27554201e-16
3.396956049e-16
1.989394666e-16
7.137458667e-16
4.095393182e-16
4.917944955e-16
2.656371727e-16
9.571961303e-17
2.268617106e-16
1.226737382e-15
1.215589356e-16
3.130333056e-16
1.253138852e-16
3.171238167e-16
5.631806974e-16
1.399618453e-16
9.697177577e-17
1.265417975e-16
3.109376939e-16
5.446099068e-16
5.539283031e-16
6.253767614e-16
-8.780132767e-18
6.260757229e-18
6.017150987e-17
5.757247673e-19
3.634593435e-16
-2.724233312e-16
-2.415135397e-16
-3.389496353e-16
-1.639385172e-17
3.080112844e-16
3.272577249e-16
6.565442132e-16
3.406212998e-16
3.104846573e-16
-1.033900279e-16
-5.566123961e-17
3.75193968e-16
1.940975409e-16
-2.074081881e-16
1.25638858e-16
-1.893869903e-16
9.593754498e-17
2.442789838e-16
3.816240058e-16
8.183665212e-16
6.182782823e-16
4.72575452e-16
-1.472410529e-16
2.090572126e-16
2.570225917e-16
-1.499823665e-16
-1.187555293e-16
3.583758679e-17
-4.776888703e-17
1.1571305e-16
1.808041894e-16
-1.243483952e-16
3.079516998e-16
3.577097957e-16
5.480382032e-16
5.333605163e-16
6.137508467e-16
2.574965562e-16
-2.178970318e-16
1.883998343e-16
-7.165454246e-16
-4.925552315e-16
-4.740635433e-16
-3.172192787e-16
-3.868132889e-16
-2.392842317e-16
-1.564105208e-16
-1.989541254e-16
3.731491401e-16
4.458961414e-16
2.172444198e-16
5.026914663e-16
1.483173971e-15
8.247001249e-16
-1.718020037e-16
-7.373446986e-16
-5.869704943e-16
-9.210677188e-16
4.590691217e-16
-3.696568906e-16
2.333093882e-16
1.820534577e-16
1.813944541e-16
-5.029722473e-17
4.853963513e-16
7.943576547e-16
1.403774635e-15
8.160972507e-16
1.167628845e-15
1.256825729e-15
-1.038671933e-15
-1.155549146e-15
-1.054108471e-15
-8.531979842e-16
-5.528642035e-16
-9.426183693e-16
-8.206763608e-16
-5.996835001e-16
-4.799589566e-16
-3.463291849e-16
-6.091949829e-16
-7.504223845e-16
-6.359673422e-16
-2.209175246e-16
-3.574361757e-16
-4.671785971e-16
-4.304415317e-16
-8.509723533e-16
-3.788432208e-16
-7.190700246e-16
-3.774870625e-16
-4.039157933e-16
-5.759505757e-16
-6.620956052e-16
-9.456750969e-16
-5.992020433e-16
-8.130927682e-16
-2.923145359e-16
-6.343077171e-16
-1.064572668e-15
-8.240920709e-16
-1.120554882e-15
-9.888918314e-16
-6.211040552e-16
-5.426502472e-16
1.675001906e-16
-7.319628743e-16
-4.894380963e-16
-4.471993936e-16
-9.221864448e-16
-7.755350207e-16
-7.317645458e-16
-6.92072766e-16
-6.367417241e-16
-1.783155567e-16
1.375688984e-17
-3.883501527e-16
-1.488680307e-16
-1.762879206e-16
-6.295983644e-16
-3.770960897e-16
-5.286571608e-16
-3.424165689e-16
-2.742774577e-16
-1.349471325e-16
2.378602782e-16
1.454539953e-16
7.080992834e-17
-2.231919453e-16
-3.752747805e-16
-3.167189998e-16
-1.901704229e-16
1.190761235e-16
1.54351533e-16
2.508548924e-16
7.53648513e-16
1.441934833e-16
4.01119735e-16
4.066183347e-16
6.930896688e-17
5.258581364e-16
7.142322227e-16
2.517974144e-16
3.381856937e-16
3.801678387e-16
5.064207719e-16
9.443984206e-16
8.128964758e-16
-1.543001628e-16
1.785662705e-16
2.585489431e-16
3.996074129e-16
5.123526061e-16
2.383970528e-16
1.630993422e-16
-2.14159407e-16
-1.626646415e-16
4.911047533e-16
4.903475795e-16
4.914468608e-16
1.119910255e-15
-1.716774333e-16
1.820537863e-16
1.337005497e-16
4.730493771e-16
4.498962313e-16
1.571577268e-16
-3.299346958e-17
-1.466888846e-16
4.099097306e-16
4.420906748e-16
-3.262780789e-17
6.051576039e-16
6.88881441e-16
3.505017543e-16
-9.765202106e-17
2.301526867e-16
9.802793389e-17
2.155955637e-16
2.007609189e-16
1.80438299e-16
9.008648711e-17
-1.310193039e-16
4.625817918e-16
1.626699903e-16
4.87805225e-16
1.045180603e-15
7.007778466e-16
7.02018262e-16
6.613540441e-16
9.359642648e-17
4.89925308e-17
-7.094905178e-19
-9.538374551e-17
5.24499872e-18
-1.063080859e-16
-1.758826548e-16
3.265888982e-16
-4.162005156e-16
1.108890799e-16
1.992270367e-16
5.191844932e-16
7.381762083e-16
3.531054195e-16
4.523973923e-16
1.137634202e-15
5.216641944e-16
-3.677298016e-17
-1.297621305e-16
-2.031551676e-16
-2.035272017e-16
-2.874476961e-16
5.297998898e-17
-3.745533334e-16
-3.759671864e-16
-3.695920035e-16
-1.726701916e-16
2.671524803e-16
6.44802363e-16
3.515801553e-16
7.731435009e-16
9.617407111e-16
9.8436759e-16
9.841600227e-16
2.434691473e-16
-1.673058406e-16
-8.192044738e-16
-5.523183891e-16
-4.634636143e-16
-6.540922289e-17
4.261358107e-17
-1.238063924e-16
-5.155593771e-16
3.397628333e-16
-2.609111109e-16
6.240248209e-16
1.449853948e-15
1.209226863e-15
1.063343974e-15
1.557230297e-15
2.316735723e-15
-1.188886438e-15
-9.287933897e-16
-8.885416164e-16
-9.888253137e-16
-1.241603397e-15
-1.67948823e-15
-4.361067255e-16
-6.117220431e-16
-7.403026878e-16
-8.358812244e-16
-7.530247593e-16
-4.045404947e-16
-8.718015586e-16
-7.069651159e-16
-3.679368899e-16
-2.722406203e-16
-7.074444767e-16
-9.548156275e-16
-9.064656023e-16
-2.737692926e-16
-3.364429572e-16
-2.013972564e-16
-4.16648588e-16
-5.554154428e-16
-5.147304525e-16
-4.394526423e-16
-5.447772372e-16
-4.411284578e-16
-2.557119996e-16
-4.551006595e-16
-7.24993144e-16
-9.788120329e-16
-9.624951906e-16
-5.366638175e-16
-4.514837274e-16
1.100410138e-16
-5.604040163e-16
-9.358594109e-16
-1.007275817e-15
-1.14057255e-15
-9.934968547e-16
-1.172205793e-15
-4.051053145e-16
-5.356748411e-16
2.068685507e-16
-2.527798917e-16
-5.338260113e-16
6.516280233e-17
-7.254034688e-16
-5.228989563e-16
-6.687475781e-16
-3.807511928e-16
-3.846936843e-16
-2.478979057e-16
4.464096142e-16
-3.365405301e-16
-2.985939683e-16
-7.174517041e-16
-6.730315751e-16
-2.058218458e-16
-5.83462383e-16
-4.661974684e-16
-3.381397035e-16
-1.603050258e-16
1.829888012e-17
1.900016237e-16
3.117485829e-16
1.790903112e-16
1.597117449e-16
1.563334062e-16
-4.084315365e-16
-4.234492051e-16
-2.060996392e-16
-7.587184353e-17
2.848054814e-16
5.356759251e-16
7.312404862e-16
8.4988291e-16
3.663316248e-17
4.846296469e-16
4.78735851e-16
6.368396582e-16
4.887312991e-16
8.083771215e-16
6.064518929e-16
3.864482341e-16
3.048597547e-16
4.494365052e-16
7.631491332e-16
4.401122759e-16
1.151839288e-15
-2.54971475e-16
1.597664327e-16
3.258367029e-16
5.018407257e-16
2.329884561e-16
6.62174644e-16
2.041372092e-16
-4.605855442e-17
9.388864626e-18
3.842403755e-16
5.749150389e-16
2.791647672e-16
5.165529163e-16
5.284170144e-16
-3.016970207e-16
3.655696592e-17
2.967685269e-16
3.141790434e-16
-7.175313935e-17
2.689152512e-16
1.426752774e-16
9.800102939e-17
2.715074963e-16
4.026643144e-16
3.608667259e-16
6.89488894e-16
9.813289485e-16
4.444269899e-16
9.748919875e-16
2.246484361e-16
1.764189675e-16
-2.048894505e-16
4.245435172e-16
3.583453661e-16
4.079123391e-16
8.426499476e-17
2.980192093e-16
1.469045174e-16
1.394964356e-16
4.885625261e-16
5.935225513e-16
8.35108891e-16
7.014258251e-16
9.038526703e-16
7.929211315e-16
5.716934271e-16
3.98278254e-16
1.965661896e-16
2.829413685e-16
2.055900255e-16
-1.953690943e-16
-2.537679947e-17
1.174138102e-16
2.610828849e-16
-1.657981059e-16
2.32023612e-16
4.492236119e-16
5.096839338e-16
6.234601953e-16
5.026851663e-16
7.468098632e-16
1.391098895e-15
4.200682115e-16
1.08849958e-16
-3.705146468e-16
-4.315202737e-16
-4.737128242e-16
1.541611783e-17
1.338577034e-16
-4.684713922e-16
-2.841132871e-16
-2.961615855e-16
-3.127378462e-16
5.04149921e-16
6.911678478e-16
7.284909681e-16
6.884006761e-16
1.049267044e-15
1.162046662e-15
1.62725666e-15
1.238378662e-15
3.779157371e-16
7.648751117e-17
-7.140771501e-16
-5.45890376e-16
-2.34165219e-16
-5.566000822e-16
5.740326892e-18
-2.677391377e-16
-4.821080658e-16
-1.024864393e-18
8.019787648e-16
1.95956946e-16
9.530610742e-16
1.208997855e-15
8.490055224e-16
1.434758731e-15
1.685498548e-15
1.471063285e-15
-1.923833504e-15
-9.210130998e-16
-1.172127461e-15
-1.674986785e-15
-9.352313561e-16
-1.196411679e-15
-5.98239087e-16
-8.96006389e-16
-1.515059773e-15
-1.42804465e-15
-5.704156648e-16
-4.110490671e-16
-8.913551294e-16
-7.407323108e-16
-1.079070219e-15
-6.510477964e-16
-8.496249371e-16
-6.628619721e-16
-9.384913973e-16
-6.820212634e-16
-3.821311862e-16
-1.515288608e-16
-4.899829814e-16
-4.676857676e-16
-6.923449672e-16
-4.701493477e-16
-3.306128232e-16
-7.558605631e-16
-3.819317741e-16
-1.406683638e-16
-5.10192204e-16
-1.710236939e-16
-5.966472064e-16
-3.969983756e-16
-4.985004392e-16
-1.360782095e-16
-4.380229279e-16
-3.914950034e-16
-6.029332556e-16
-5.383424149e-16
-8.169887533e-16
-8.887784479e-16
-1.133159463e-16
-1.016323328e-16
3.393173572e-16
-1.711738757e-16
-4.31827988e-16
-7.681897909e-16
-1.008490106e-15
-7.123129532e-16
-8.361627028e-16
-6.173433469e-16
-2.919728883e-16
-3.825036497e-16
4.695341706e-16
-4.752854989e-16
1.085021879e-17
-4.171352217e-16
-7.992228317e-16
-8.304208682e-16
-7.983490517e-16
-6.084261933e-16
-5.663554882e-16
-7.253589031e-17
1.96281674e-16
4.253982478e-16
1.248733636e-16
-2.287047509e-16
-3.170756435e-16
-2.791977319e-16
-6.980715655e-16
-5.772627138e-16
-2.773908671e-16
-4.70691439e-16
-2.137953575e-16
-1.641676862e-16
4.008081141e-16
8.634870253e-17
-1.092238043e-16
2.113003047e-16
5.403279152e-17
-6.957951817e-17
-2.340850114e-17
-5.977173385e-16
-1.733492952e-17
2.296919133e-16
-3.941056138e-17
4.316779651e-16
6.402394028e-16
7.382571015e-16
7.371010812e-16
1.415798276e-16
9.933411134e-17
4.874805965e-16
6.950322988e-16
6.751559885e-16
4.726746138e-16
2.784653637e-16
3.269732111e-16
4.128599124e-16
4.505738588e-16
9.562262715e-16
5.833203611e-16
7.243991393e-16
8.905801787e-16
-2.546717815e-17
-4.992397674e-18
2.795994409e-17
3.040361518e-16
7.834099256e-16
4.501262067e-16
4.762855277e-16
3.334546465e-16
-1.135390515e-16
1.249041876e-16
3.971091594e-16
3.908163558e-16
2.603683272e-16
6.456230703e-16
7.368314112e-16
-1.176825996e-17
2.520392455e-16
2.094187994e-17
2.602251162e-16
2.08331287e-16
1.576666822e-16
5.178549305e-16
1.130438223e-17
2.857861756e-16
1.872255223e-16
4.167089219e-16
3.038700785e-16
6.555185055e-16
1.222423988e-15
1.002276694e-15
8.222726365e-16
5.804538675e-17
4.579146628e-16
3.19231843e-16
3.952616177e-16
6.841616806e-16
1.680947536e-16
2.542786731e-16
2.582615054e-16
3.509779566e-16
7.024315471e-17
5.471988648e-16
3.583383561e-16
9.150251561e-16
8.301595365e-16
1.033902869e-15
1.056170452e-15
1.619016664e-15
7.386429332e-16
6.315553234e-16
2.029178297e-16
1.868676067e-16
9.021175679e-18
-2.332549243e-16
-7.437862893e-17
1.255207958e-17
-2.581230468e-17
1.184091545e-16
-3.756530331e-17
5.06591923e-16
7.992601236e-16
2.523660895e-16
8.914850449e-16
8.73890042e-16
1.251972618e-15
1.137503248e-15
2.943637757e-16
3.268718709e-16
-2.804663536e-16
-2.350508665e-16
-1.081968068e-16
-6.064312002e-16
3.227389473e-16
-1.296355427e-16
-2.234595388e-16
-6.103485427e-17
-2.348781079e-16
-1.08363324e-16
4.728119622e-16
1.156117847e-15
7.947556578e-16
1.098164219e-15
1.157530768e-15
1.19108582e-15
1.521559578e-15
1.791358634e-15
8.095662689e-16
6.052976452e-16
-1.758556025e-17
-1.699933154e-16
3.442996456e-19
-6.292197858e-16
2.125083583e-16
-3.100882874e-17
7.811783877e-17
3.731441886e-16
3.304086006e-17
7.650163569e-16
4.593625585e-16
1.075392497e-15
1.516886477e-15
1.519276464e-15
1.877165866e-15
1.484925061e-15
1.636430115e-15
-1.732281378e-15
-9.734345685e-16
-1.542318814e-15
-8.806324408e-16
-9.943052961e-16
-5.914299868e-16
-1.089089604e-15
-1.190901546e-15
-8.275428887e-16
-1.097894099e-15
-3.609783519e-16
-6.082985548e-16
-1.202501776e-15
-1.14275512e-15
-6.873697021e-16
-6.452068278e-16
-8.52604404e-16
-3.495857837e-16
-7.323767665e-16
-9.618920416e-16
-9.953424428e-16
-5.415137095e-16
-7.253163876e-16
-6.73575346e-16
-7.195361986e-16
-9.481519645e-16
-4.401442667e-16
-2.900042049e-16
-5.031638719e-16
7.106862512e-17
-2.64333399e-16
-3.150999408e-16
-5.253134895e-16
-2.793839554e-16
-7.901215206e-16
-8.931962595e-16
-9.063116861e-16
1.546378003e-16
-4.525557897e-16
-7.993353414e-17
-3.050206463e-16
-3.357281184e-16
-3.064384298e-16
-1.676191321e-16
2.884507123e-16
-1.500426981e-16
-3.6574911e-16
-5.646497117e-16
-3.34405209e-16
-6.180181652e-16
-8.433003346e-16
-3.518714088e-16
-1.685103872e-16
-7.116633597e-17
1.95698011e-16
-6.373176729e-16
-1.942151086e-16
-6.571508094e-16
-8.068950018e-16
-6.972541094e-16
-5.441522996e-16
-6.252175441e-16
-4.706642583e-16
5.790934012e-17
4.74563493e-16
4.547456361e-16
8.556509831e-17
2.328516855e-16
-1.477715961e-16
-3.223843201e-16
-6.024695531e-16
-2.398072107e-16
-2.303490508e-16
-5.060362367e-16
-1.592064503e-16
-2.464246292e-16
2.107000098e-16
3.141184551e-16
-4.432474501e-16
-4.29579413e-17
-3.047040758e-16
-4.244881096e-16
-4.460935451e-16
-4.472037036e-16
-3.562550958e-16
-5.013768393e-16
-1.514260934e-16
-9.19128375e-17
3.244351677e-16
7.887100316e-16
2.473160304e-16
4.117118982e-16
9.08348875e-18
4.769237721e-16
1.663576584e-16
1.038372497e-16
-1.67625592e-16
-1.735602635e-16
2.573239153e-16
2.432920368e-16
7.650834618e-17
3.923746897e-16
6.028472487e-16
9.581711628e-16
1.149051568e-15
-1.547917674e-17
2.979687281e-16
2.484637998e-16
6.953749888e-17
1.037419203e-15
4.794367032e-16
3.12359402e-16
3.848151886e-16
1.643223024e-16
1.872048723e-16
4.036119261e-16
4.009670879e-16
7.859003407e-16
9.111889622e-16
1.227779978e-15
2.446113579e-16
-1.730113223e-16
2.174276944e-16
2.826897807e-16
2.560545052e-16
5.341682859e-16
6.58437245e-16
-8.709352721e-17
1.592716033e-16
1.063911039e-16
5.390477223e-16
5.1541808e-16
5.570205499e-16
7.215907854e-16
9.927954788e-16
8.560128628e-16
1.10742581e-16
3.937846307e-16
6.982848187e-16
2.474424025e-16
-4.824977395e-17
-6.848525637e-17
3.098266272e-16
7.994756206e-17
4.177024571e-16
4.449866297e-16
4.745629303e-16
6.100389916e-16
4.897941242e-16
1.059261503e-15
1.431022279e-15
9.055744282e-16
1.551681476e-15
4.865866683e-16
6.087275227e-16
2.105183343e-16
3.348580846e-16
2.610893967e-16
4.725828435e-16
4.73770369e-17
4.285401543e-16
1.708947706e-16
3.55226231e-16
5.554716028e-16
7.98757253e-16
7.095829783e-16
1.072129836e-15
1.168735975e-15
1.095528538e-15
1.344658672e-15
1.686878449e-15
6.757948922e-16
9.261663515e-17
3.649208062e-16
2.54796438e-16
1.639680291e-16
-8.030221228e-17
2.199451656e-16
1.309639161e-16
3.336602953e-16
4.560783309e-16
-2.953317416e-16
2.800359034e-16
8.359297401e-16
7.436035829e-16
9.791880602e-16
1.082528873e-15
1.234812168e-15
1.375353006e-15
9.402913541e-16
5.042075215e-16
1.199124193e-18
3.57629806e-16
-2.176909652e-16
-5.185584668e-16
-7.843339948e-16
-1.920435934e-16
-1.543658662e-16
1.531786852e-16
2.537950385e-16
-2.854991682e-16
-2.711709367e-17
2.650416373e-16
8.139174791e-16
1.140675683e-15
9.72293415e-16
1.017959472e-15
1.657398845e-15
1.49323354e-15
2.160129474e-15
1.458206858e-15
7.388501351e-16
6.112625004e-16
5.225926249e-16
2.45305068e-16
-3.970718099e-16
-1.972316446e-16
1.95300186e-16
4.921894572e-16
5.423582987e-16
3.438035203e-16
1.297910977e-16
3.430132338e-16