/*--------------------------------*- C++ -*----------------------------------*\
| =========                 |                                                 |
| \\      /  F ield         | OpenFOAM: The Open Source CFD Toolbox           |
|  \\    /   O peration     | Version:  2212                                  |
|   \\  /    A nd           | Website:  www.openfoam.com                      |
|    \\/     M anipulation  |                                                 |
\*---------------------------------------------------------------------------*/
FoamFile
{
    version     2.0;
    format      ascii;
    arch        "LSB;label=32;scalar=64";
    class       surfaceScalarField;
    location    "0.6";
    object      phi;
}
// * * * * * * * * * * * * * * * * * * * * * * * * * * * * * * * * * * * * * //

dimensions      [0 3 -1 0 0 0 0];

oriented        oriented;

internalField   nonuniform List<scalar> 
124950
(
0.0025
1.394915058e-19
4.322240531e-19
0.0025
-1.480620857e-19
-6.573190141e-20
0.0025
-1.950293069e-19
2.105417434e-19
0.0025
-2.525678012e-19
-3.940622236e-19
0.0025
-9.630089484e-19
-9.872379187e-19
0.0025
-8.030002588e-19
-3.20899046e-19
0.0025
-3.418222653e-19
9.629134174e-20
0.0025
-2.580329363e-19
2.023621912e-19
0.0025
-3.24018642e-19
-9.196814154e-21
0.0025
1.774619575e-19
-5.052261691e-19
0.0025
-5.984710351e-19
-3.550895698e-19
0.0025
-1.307985317e-18
-9.060612493e-19
0.0025
-6.825551786e-19
-2.060463456e-19
0.0025
-5.961976635e-19
5.823939938e-20
0.0025
-4.803640294e-19
-5.988872418e-20
0.0025
-5.08095017e-19
-1.029098446e-18
0.0025
-2.91680519e-19
5.604670438e-19
0.0025
2.134228122e-20
7.481009155e-20
0.0025
3.949310163e-20
-1.95556026e-20
0.0025
3.029555069e-19
-2.266683198e-19
0.0025
-4.027717524e-19
6.236767163e-20
0.0025
-1.017589752e-18
-6.20300027e-19
0.0025
-8.377167922e-19
-5.923314491e-19
0.0025
-1.488838219e-18
-4.216118452e-19
0.0025
-4.86367367e-19
-1.86638561e-19
0.0025
-9.401984818e-19
-6.984681934e-19
0.0025
-2.50747644e-19
4.335762067e-19
0.0025
-1.286001e-19
4.851592392e-20
0.0025
-4.461394125e-19
-2.109396754e-19
0.0025
2.651456064e-19
-2.47362931e-19
0.0025
3.767513389e-19
6.644650775e-19
0.0025
-8.457975964e-20
1.572168776e-19
0.0025
4.064942579e-21
8.742332943e-20
0.0025
3.878500793e-20
1.581985939e-19
0.0025
9.235660691e-19
-7.741255055e-20
0.0025
-3.468856548e-19
4.576996937e-19
0.0025
-5.324636075e-19
-2.124795907e-19
0.0025
-8.890485599e-19
-3.725444453e-19
0.0025
-1.49967079e-18
-7.124724032e-19
0.0025
-6.799715407e-19
-4.095903413e-19
0.0025
-7.402741311e-19
-1.496051568e-19
0.0025
-9.815305014e-19
2.285849052e-19
0.0025
-6.171590669e-19
-2.675238117e-19
0.0025
-9.221787186e-19
-4.97773284e-19
0.0025
-3.365486791e-19
-5.67548414e-19
0.0025
-3.492962365e-19
3.215834616e-19
0.0025
-3.038984327e-19
7.616841694e-21
0.0025
-2.229211874e-19
2.567192272e-19
0.0025
-1.017200782e-20
-2.27628595e-19
0.0025
2.97532472e-19
-3.925870575e-19
0.0025
2.566477902e-19
4.379536658e-19
0.0025
2.030891066e-19
2.343993654e-19
0.0025
-2.688942984e-19
7.267232816e-20
0.0025
1.782919194e-19
4.55737275e-19
0.0025
3.725602908e-19
-2.667405034e-19
0.0025
7.026189145e-19
1.122315647e-19
0.0025
-9.842302087e-19
-6.117618082e-19
0.0025
-5.936152069e-19
-2.309050608e-19
0.0025
-1.263522511e-18
-4.088242449e-19
0.0025
-1.108358546e-18
-3.963734026e-19
0.0025
-6.683783805e-19
-6.293045849e-19
0.0025
-8.261159128e-19
-2.649359077e-19
0.0025
-1.336083523e-18
-1.129550092e-20
0.0025
-6.841963374e-19
-6.19213246e-19
0.0025
-1.081470036e-18
-5.64123945e-19
0.0025
-1.025985616e-18
-3.902223856e-19
0.0025
-8.46565249e-19
2.05201447e-19
0.0025
-5.761266475e-19
3.646602937e-19
0.0025
-6.253024255e-19
-3.39788223e-20
0.0025
-2.520048992e-20
-4.174170262e-19
0.0025
-5.647478434e-19
-3.428662213e-19
0.0025
3.55733476e-20
1.210707009e-19
0.0025
-4.784566029e-19
3.633386664e-19
0.0025
-3.432760959e-19
3.032693041e-21
0.0025
-1.083796121e-19
1.297845164e-19
0.0025
2.94048109e-19
-3.433210021e-19
0.0025
2.070212701e-19
-3.311652417e-19
0.0025
-2.65104065e-19
9.569017724e-20
0.0025
-9.797382757e-20
-1.418446325e-19
0.0025
6.858969475e-20
3.087395735e-19
0.0025
1.083693121e-19
4.03212534e-20
0.0025
-3.956198572e-19
-1.868289809e-19
0.0025
3.583144984e-19
-4.069088908e-19
0.0025
2.152634763e-19
-3.110551826e-19
0.0025
-2.069127633e-18
-2.235680382e-18
0.0025
-9.606559539e-19
-6.198675136e-19
0.0025
-1.167711278e-18
-1.055061673e-18
0.0025
-4.835079504e-19
-9.669696633e-20
0.0025
-8.525867799e-19
-5.280985103e-19
0.0025
-8.298406556e-19
-4.246064981e-19
0.0025
-1.05098186e-18
2.192549166e-19
0.0025
-5.838893273e-19
-3.515754364e-19
0.0025
-3.973788421e-19
-1.441747918e-19
0.0025
-8.547136639e-19
-3.537381361e-19
0.0025
-1.011543548e-18
9.93654186e-20
0.0025
-7.896916355e-19
9.874787477e-20
0.0025
-8.151422678e-19
-4.659378978e-19
0.0025
-4.767595574e-19
-4.280572517e-19
0.0025
-9.091384096e-19
-1.047145309e-19
0.0025
-3.395078299e-19
4.97826879e-19
0.0025
-5.841536436e-19
3.431784408e-19
0.0025
-6.055005073e-19
3.457372361e-19
0.0025
7.376740406e-20
-1.612896764e-19
0.0025
-2.1386323e-19
-1.884763777e-19
0.0025
-2.759649704e-19
-5.579869983e-19
0.0025
-1.071789213e-19
3.39606096e-19
0.0025
1.077477778e-19
1.327727319e-19
0.0025
-3.542010215e-19
3.432211147e-19
0.0025
5.85034067e-21
1.546611032e-19
0.0025
-2.858964133e-19
-2.403591763e-19
0.0025
2.732962908e-19
-1.958017997e-19
0.0025
5.02154744e-19
-2.857244386e-19
0.0025
-1.051192313e-19
5.254968612e-19
0.0025
9.485480339e-20
-2.949299067e-21
0.0025
2.810524988e-19
-5.864093743e-21
0.0025
-1.586242161e-19
-2.091117991e-19
0.0025
-4.162392106e-19
1.679242423e-19
0.0025
2.068272057e-19
-3.648304276e-20
0.0025
4.832824483e-19
-1.192526263e-19
0.0025
4.492909877e-19
-2.319225813e-19
0.0025
-2.927263129e-18
-3.112352956e-18
0.0025
-1.841749698e-18
-1.359607505e-18
0.0025
-6.734197206e-19
-1.357149839e-18
0.0025
-7.076269796e-19
-4.975070322e-19
0.0025
-1.054005092e-18
-7.741829066e-19
0.0025
-6.88496083e-19
-7.012540128e-19
0.0025
-7.527056144e-19
-2.887414544e-19
0.0025
-8.63903445e-19
-3.568482136e-19
0.0025
-5.997267526e-19
-3.335216259e-19
0.0025
-9.756268422e-19
-5.079919963e-19
0.0025
-9.093458563e-19
-1.215927808e-19
0.0025
-1.105362124e-18
-3.890503778e-19
0.0025
-1.042756768e-18
-4.589240003e-19
0.0025
-5.283293233e-19
-3.614104253e-19
0.0025
-6.270377953e-19
-1.195924081e-19
0.0025
-8.551968219e-19
5.874819065e-19
0.0025
-4.927818173e-19
7.497161742e-20
0.0025
-6.519522041e-19
2.278947316e-19
0.0025
1.337942397e-19
-3.171992484e-20
0.0025
-4.563902344e-19
-2.781765418e-20
0.0025
-8.699533345e-19
-7.262529215e-19
0.0025
-1.522385343e-19
5.893003644e-19
0.0025
-1.376994523e-19
4.331071002e-19
0.0025
-5.576972471e-19
2.089889459e-19
0.0025
-5.991338337e-19
-3.659714799e-19
0.0025
-2.366490516e-19
-3.125332535e-19
0.0025
-1.067331352e-19
-2.497814493e-19
0.0025
-2.202887391e-19
-8.354503327e-19
0.0025
1.847610271e-19
5.710484039e-19
0.0025
1.836366953e-19
4.271998871e-19
0.0025
3.821621884e-19
1.427828588e-19
0.0025
-5.20347086e-19
-9.958497121e-20
0.0025
-3.747506758e-19
-4.436769393e-20
0.0025
6.255183821e-20
-1.22090654e-19
0.0025
2.948119301e-19
-2.717367105e-19
0.0025
4.184437394e-19
-1.843165481e-19
0.0025
1.451152298e-19
7.790716729e-19
0.0025
1.97708872e-19
-1.619013088e-19
0.0025
-6.115988431e-21
-1.316648129e-20
0.0025
-1.638565998e-19
-1.509272722e-19
0.0025
-1.580049848e-19
-1.193014009e-19
0.0025
-4.206087644e-19
-4.605560807e-19
0.0025
-2.880268232e-19
-3.476138968e-19
0.0025
4.899002951e-19
1.336638769e-19
0.0025
5.950484749e-19
-1.559233476e-20
0.0025
-3.412239397e-18
-3.512052074e-18
0.0025
-2.333926994e-18
-1.57813257e-18
0.0025
-8.632067236e-19
-1.683112435e-18
0.0025
-1.327724145e-18
-6.783739454e-19
0.0025
-9.777029436e-19
-1.295517023e-18
0.0025
-1.081653421e-18
-1.096630688e-18
0.0025
-7.519863141e-19
-6.163316699e-19
0.0025
-1.149803765e-18
-6.661512548e-19
0.0025
-8.250398945e-19
-8.145424477e-19
0.0025
-8.811003336e-19
-7.419192972e-19
0.0025
-7.558743417e-19
-4.74667156e-19
0.0025
-1.021344764e-18
-3.65909727e-19
0.0025
-7.381556634e-19
-1.97150541e-19
0.0025
-5.633989614e-19
-3.5121802e-19
0.0025
-6.368745962e-19
-3.87437472e-19
0.0025
-1.252216986e-18
2.955520344e-19
0.0025
-5.941327549e-19
1.207667228e-20
0.0025
-5.776020658e-19
5.172935265e-20
0.0025
-2.781849643e-19
-1.317536805e-19
0.0025
-3.805309883e-19
-4.495681503e-20
0.0025
-6.729890683e-19
-4.781644401e-19
0.0025
-4.947907485e-19
7.200731451e-19
0.0025
-4.243483196e-19
4.736174183e-19
0.0025
-3.286606162e-19
1.947218255e-19
0.0025
-6.231641438e-19
-3.826934057e-19
0.0025
-2.660154732e-19
-1.087234028e-19
0.0025
-5.544469793e-19
-5.622888727e-19
0.0025
-1.010216213e-18
-1.11205231e-18
0.0025
1.981704346e-19
6.032181293e-19
0.0025
-1.532098802e-19
4.96568128e-19
0.0025
-1.288390552e-19
3.310731043e-19
0.0025
-4.980173508e-19
1.140304535e-19
0.0025
-2.86678069e-19
-3.037361299e-19
0.0025
-4.424903082e-20
-3.989571006e-19
0.0025
-1.424463646e-19
-4.577853933e-19
0.0025
6.94441052e-21
-6.983411381e-19
0.0025
4.547436767e-19
5.516403061e-19
0.0025
2.088318942e-19
1.743697138e-19
0.0025
1.479131624e-19
-7.24941394e-21
0.0025
-1.808737388e-19
1.327481577e-19
0.0025
-4.838313125e-19
-3.537323293e-19
0.0025
-1.766076683e-19
-8.795971379e-20
0.0025
-6.604234288e-20
-3.99391466e-19
0.0025
3.25430467e-19
-4.259830438e-19
0.0025
5.219094296e-20
-3.166990327e-19
0.0025
1.691164819e-19
4.697799718e-19
0.0025
2.555622283e-19
6.741960109e-20
0.0025
-3.460683619e-20
-4.691280266e-19
0.0025
-6.129376376e-19
-1.653010016e-19
0.0025
4.485034302e-20
7.671721024e-20
0.0025
-1.413606477e-19
-3.676244476e-19
0.0025
-1.959313632e-19
-1.081185367e-19
0.0025
3.757790473e-20
-4.532791804e-19
0.0025
-3.187624414e-19
-3.23180215e-19
0.0025
5.000546115e-19
-1.255160928e-19
0.0025
-2.705551895e-18
-3.10655237e-18
0.0025
-2.300766261e-18
-1.492885424e-18
0.0025
-1.356634441e-18
-2.371939071e-18
0.0025
-1.868840978e-18
-8.744156398e-19
0.0025
-1.043788686e-18
-1.322307634e-18
0.0025
-1.479560298e-18
-1.134156005e-18
0.0025
-5.48066978e-19
-9.161102042e-19
0.0025
-1.566929385e-18
-9.682085047e-19
0.0025
-1.069370248e-18
-1.08743647e-18
0.0025
-5.652697714e-19
-6.382572902e-19
0.0025
-1.153560971e-18
-8.805035225e-19
0.0025
-1.02911977e-18
-5.073836248e-19
0.0025
-7.235187686e-19
-1.889098202e-19
0.0025
-5.261669445e-19
-8.059647545e-19
0.0025
-8.262764471e-19
-9.707528789e-19
0.0025
-9.51803728e-19
-3.191967972e-19
0.0025
-8.513680559e-19
-2.363655785e-19
0.0025
-6.618109189e-19
-4.077775296e-19
0.0025
-8.340168246e-19
-3.288355447e-19
0.0025
-5.248459125e-19
-2.674992196e-19
0.0025
-4.705948869e-19
-9.735265096e-20
0.0025
-6.763754298e-19
7.362882627e-19
0.0025
-5.762646616e-19
3.179809706e-19
0.0025
-4.571241345e-19
1.700439743e-19
0.0025
-5.816187881e-19
-2.176522153e-19
0.0025
-3.034645482e-19
3.399895106e-20
0.0025
-3.505395358e-19
-4.704795356e-19
0.0025
-7.996499415e-19
-7.494325567e-19
0.0025
-6.052270377e-19
7.817215854e-19
0.0025
-6.19659428e-19
5.03018468e-19
0.0025
-4.749725067e-19
3.035661251e-19
0.0025
-3.573478721e-19
2.672556001e-19
0.0025
-5.11996703e-20
-2.69896119e-19
0.0025
-3.679470994e-19
-7.213456477e-19
0.0025
-5.996156558e-19
-7.920104915e-19
0.0025
-4.971337598e-19
-1.118076572e-18
0.0025
2.013139779e-19
2.784067748e-19
0.0025
-3.942455178e-20
3.279832775e-19
0.0025
-1.090924772e-19
2.699165575e-19
0.0025
-3.03016728e-19
1.824263744e-19
0.0025
-5.071396054e-19
-1.592589056e-19
0.0025
-3.253732023e-20
-2.222814591e-19
0.0025
-1.053258055e-19
-5.600091566e-19
0.0025
4.307276421e-20
-5.594902044e-19
0.0025
-3.149187657e-20
-3.922944511e-19
0.0025
2.204718099e-19
1.00637902e-19
0.0025
2.298377933e-19
9.362723846e-20
0.0025
-2.711778668e-19
-3.496927183e-19
0.0025
-2.671582219e-19
-3.105525267e-20
0.0025
-7.382455694e-20
1.735310044e-19
0.0025
-1.139975012e-19
-2.18636467e-19
0.0025
-2.568416452e-19
-4.577961327e-19
0.0025
-1.884537753e-19
-5.874063901e-19
0.0025
2.185150667e-20
-3.969993664e-19
0.0025
3.586887691e-19
-4.282510768e-19
0.0025
-3.965295795e-19
5.161230938e-19
0.0025
1.870054278e-19
-5.355562528e-19
0.0025
-5.034030821e-19
-6.913814684e-19
0.0025
6.400947218e-20
7.403220615e-20
0.0025
-4.388206931e-19
-2.514115313e-20
0.0025
1.629464021e-19
2.688750322e-19
0.0025
4.082271642e-19
-3.167490724e-19
0.0025
-5.762113118e-19
-6.948480012e-19
0.0025
-1.657834894e-19
1.592875028e-19
0.0025
2.782260601e-19
-2.664575532e-19
0.0025
1.366757805e-19
-8.453681075e-20
0.0025
-1.212873217e-18
-2.42146331e-18
0.0025
-1.941987437e-18
-1.574044619e-18
0.0025
-1.145908543e-18
-2.250130256e-18
0.0025
-2.072275011e-18
-1.50491263e-18
0.0025
-1.38305551e-18
-1.470718236e-18
0.0025
-1.591660393e-18
-1.499897847e-18
0.0025
-9.833251658e-19
-7.661300248e-19
0.0025
-1.646780385e-18
-1.169355008e-18
0.0025
-1.207681994e-18
-1.372555697e-18
0.0025
-9.843766501e-19
-1.039187081e-18
0.0025
-1.634345271e-18
-1.120008511e-18
0.0025
-8.469426573e-19
-6.008531968e-19
0.0025
-1.112663276e-18
-8.361980772e-19
0.0025
-7.431854499e-19
-1.216239003e-18
0.0025
-1.306557207e-18
-1.027063902e-18
0.0025
-9.918682058e-19
-5.949381998e-19
0.0025
-1.084029128e-18
-6.249814308e-19
0.0025
-7.727860137e-19
-4.569977631e-19
0.0025
-1.084559743e-18
-6.073345404e-19
0.0025
-3.380978095e-19
-5.923122011e-19
0.0025
-4.245876688e-19
-1.744658453e-19
0.0025
-8.68820909e-19
-7.541765374e-20
0.0025
-8.00780453e-19
-2.55415183e-19
0.0025
-7.832751772e-19
-8.544674863e-21
0.0025
-5.467711827e-19
-6.742384895e-20
0.0025
-4.932356738e-19
-1.668706824e-19
0.0025
-3.791801339e-19
-3.798307973e-19
0.0025
-7.736789272e-19
-2.800232138e-19
0.0025
-1.116789848e-18
4.907730971e-19
0.0025
-8.867208303e-19
2.986583e-19
0.0025
-7.056928965e-19
2.836348895e-19
0.0025
-4.5264531e-19
2.0781016e-19
0.0025
-1.447796964e-19
-2.4369584e-19
0.0025
-7.065163643e-19
-7.27877168e-19
0.0025
-4.760686498e-19
-7.211023876e-19
0.0025
-6.559013654e-19
-7.128893308e-19
0.0025
-2.28730891e-19
3.432495651e-19
0.0025
-7.824768589e-19
4.923922174e-19
0.0025
-5.421892834e-19
4.930727601e-19
0.0025
-2.755652853e-19
5.086477422e-20
0.0025
-3.456118851e-19
-2.328741362e-19
0.0025
-2.445299305e-19
-2.156573552e-19
0.0025
-1.585337999e-19
-6.025977321e-19
0.0025
-1.424091791e-19
-5.981305988e-19
0.0025
-4.052494469e-19
-7.065670112e-19
0.0025
3.112550827e-19
3.092503077e-19
0.0025
1.874544341e-19
1.9053942e-19
0.0025
-3.432401138e-19
1.121978699e-19
0.0025
-1.613668336e-19
-9.995991683e-20
0.0025
-4.658421529e-19
-6.921731227e-20
0.0025
-2.962834743e-19
-3.328522237e-19
0.0025
-2.424073404e-19
-2.759969215e-19
0.0025
-3.86373457e-20
-7.042545131e-19
0.0025
6.3761636e-20
-4.219383287e-19
0.0025
1.285278615e-19
-2.94625382e-19
0.0025
-6.322546588e-19
7.331881649e-20
0.0025
2.474330179e-19
6.744463997e-22
0.0025
-1.397251015e-20
-1.309502522e-19
0.0025
1.199860935e-19
-2.29514154e-20
0.0025
-2.198185035e-19
2.794399237e-19
0.0025
8.585078924e-20
-1.234584371e-19
0.0025
-1.897261365e-19
-3.787111182e-19
0.0025
-2.19454082e-19
-3.546874644e-19
0.0025
1.030617729e-19
-3.223039406e-19
0.0025
1.522014754e-19
-3.229953076e-19
0.0025
2.285229679e-19
-3.838666879e-19
0.0025
-9.270562e-19
5.630026805e-19
0.0025
-1.9430469e-19
-4.397188061e-19
0.0025
-1.220663262e-19
-1.693664857e-19
0.0025
2.151088487e-19
-2.27999452e-19
0.0025
-4.535124554e-20
4.344035715e-19
0.0025
2.298853992e-20
-1.924641144e-19
0.0025
-1.734787116e-19
-4.480578861e-19
0.0025
1.189466607e-19
-1.752902099e-19
0.0025
-1.00487946e-19
-1.718763092e-19
0.0025
-2.964944573e-19
-4.91694112e-19
0.0025
-7.128769228e-21
4.878552856e-19
0.0025
4.883438205e-19
-6.376838312e-19
0.0025
-2.203939898e-19
-1.855384757e-18
0.0025
-1.433130156e-18
-1.915175176e-18
0.0025
-7.237602938e-19
-2.334083162e-18
0.0025
-1.781797115e-18
-1.652749115e-18
0.0025
-1.210126126e-18
-1.610081166e-18
0.0025
-1.561672304e-18
-2.111114739e-18
0.0025
-1.753269112e-18
-1.012716053e-18
0.0025
-1.600132338e-18
-1.417833612e-18
0.0025
-1.307326058e-18
-1.586411335e-18
0.0025
-1.179523398e-18
-1.709194692e-18
0.0025
-1.360748389e-18
-5.49085312e-19
0.0025
-1.101982956e-18
-6.262858561e-19
0.0025
-1.158209728e-18
-1.29892028e-18
0.0025
-9.121015418e-19
-1.371025504e-18
0.0025
-1.655935513e-18
-1.514679276e-18
0.0025
-1.210020104e-18
-7.365535709e-19
0.0025
-1.128126681e-18
-9.00598112e-19
0.0025
-6.656824007e-19
-4.287704183e-19
0.0025
-1.032061176e-18
-8.2006804e-19
0.0025
-5.410589375e-19
-7.615101334e-19
0.0025
-8.627753108e-19
-5.726178956e-19
0.0025
-1.163834604e-18
-3.209370339e-19
0.0025
-1.019938494e-18
-6.372808061e-19
0.0025
-9.841155043e-19
-3.258505486e-19
0.0025
-9.943210681e-19
-4.600274445e-19
0.0025
-5.835074572e-19
-5.13261233e-19
0.0025
-1.879057674e-19
-1.657605351e-19
0.0025
-5.383945606e-19
-1.341756311e-19
0.0025
-1.667061697e-18
-9.362855693e-19
0.0025
-9.616692218e-19
-6.317397172e-20
0.0025
-8.522793689e-19
-1.477870473e-19
0.0025
-9.186359225e-19
1.174118538e-19
0.0025
-3.564129895e-19
-1.730704469e-19
0.0025
-4.935721583e-19
-3.783443069e-19
0.0025
-4.879958812e-19
-3.437462881e-19
0.0025
-7.205262822e-19
-5.479339568e-19
0.0025
-2.008916479e-19
7.421012313e-19
0.0025
-8.624251771e-19
2.377872367e-19
0.0025
-1.090966659e-18
1.531624745e-19
0.0025
-6.243416561e-19
-3.098119619e-20
0.0025
-2.672081515e-19
-3.204056123e-19
0.0025
-5.293765977e-19
-1.017472449e-19
0.0025
-3.882912096e-19
-6.613311619e-19
0.0025
-3.486841924e-19
-3.998578281e-19
0.0025
-5.809150585e-19
-9.371476679e-19
0.0025
-1.469507005e-19
7.680374837e-19
0.0025
1.35456698e-20
5.977297818e-19
0.0025
-7.100344118e-19
2.122492872e-19
0.0025
-6.091317283e-19
-2.975731106e-19
0.0025
-6.805739867e-19
-5.007992231e-19
0.0025
-6.141178767e-19
-6.264902635e-19
0.0025
-5.12351325e-19
-7.047550739e-19
0.0025
-2.966767993e-19
-5.846506682e-19
0.0025
-3.852544382e-20
-1.793731014e-19
0.0025
1.682512834e-19
-3.929133282e-19
0.0025
-2.858231463e-19
1.287729933e-19
0.0025
2.414889764e-19
7.411228186e-20
0.0025
-6.385367386e-20
3.36281782e-19
0.0025
-2.916576111e-19
-3.028088672e-19
0.0025
-2.651907107e-19
1.056152263e-19
0.0025
-4.031446734e-19
-4.873745482e-19
0.0025
-5.557118438e-19
-4.677628335e-19
0.0025
-1.970295375e-19
-3.872232642e-19
0.0025
9.441632429e-20
-5.063590866e-19
0.0025
2.691588616e-20
-3.592923956e-19
0.0025
-1.176328322e-19
-8.095601652e-19
0.0025
-7.840056217e-19
2.4296807e-19
0.0025
-3.819474814e-19
-8.457506569e-20
0.0025
-1.217889685e-19
-3.951814915e-20
0.0025
3.274682588e-19
-2.144965584e-19
0.0025
1.05905582e-19
-1.107777298e-19
0.0025
-4.736662651e-19
-6.892799518e-20
0.0025
1.46272273e-19
-2.726745852e-19
0.0025
-1.928739637e-19
-2.096060264e-19
0.0025
-8.69337434e-20
-4.328773219e-19
0.0025
1.886432008e-20
-2.332773216e-19
0.0025
2.635724117e-19
5.517709851e-21
0.0025
4.722084307e-19
-3.451365092e-19
0.0025
5.200165999e-20
1.291853133e-18
0.0025
-3.963039335e-19
-5.073485053e-19
0.0025
-3.850322774e-20
1.198441171e-19
0.0025
4.089493016e-19
2.199697771e-19
0.0025
5.439304993e-19
1.407874404e-19
0.0025
-4.363753922e-19
-4.415812008e-19
0.0025
-4.85217707e-19
-2.947874168e-19
0.0025
-2.070927465e-19
-7.589522888e-19
0.0025
-1.413644671e-20
3.368111407e-20
0.0025
-2.129609071e-19
-1.569951124e-19
0.0025
7.171649014e-20
-6.899604293e-20
0.0025
-3.60494915e-19
-6.913042854e-20
0.0025
1.1218411e-18
1.281924528e-19
0.0025
4.257690277e-20
-1.41122517e-18
0.0025
-5.803882306e-19
-1.948587989e-18
0.0025
-3.335992206e-19
-2.091199114e-18
0.0025
-1.524312701e-18
-1.759126716e-18
0.0025
-9.462631575e-19
-1.91583503e-18
0.0025
-8.154218503e-19
-2.372714393e-18
0.0025
-2.039952226e-18
-1.255653698e-18
0.0025
-1.330409823e-18
-1.555877509e-18
0.0025
-1.226320668e-18
-1.8053511e-18
0.0025
-8.086451175e-19
-2.461756291e-18
0.0025
-1.599533227e-18
-6.057047838e-19
0.0025
-1.266684557e-18
-8.514488589e-19
0.0025
-1.060223049e-18
-1.223352237e-18
0.0025
-7.741723558e-19
-1.541085295e-18
0.0025
-1.516550781e-18
-2.145913272e-18
0.0025
-1.596470362e-18
-9.501567066e-19
0.0025
-1.297440784e-18
-7.90772929e-19
0.0025
-1.008812759e-18
-6.971259538e-19
0.0025
-8.750427048e-19
-8.180239879e-19
0.0025
-8.695263314e-19
-1.268291818e-18
0.0025
-1.011561871e-18
-1.207677978e-18
0.0025
-1.109708923e-18
-1.060677131e-19
0.0025
-8.857236923e-19
-5.527822725e-19
0.0025
-8.756705502e-19
-6.328327986e-19
0.0025
-7.511933531e-19
-4.2670847e-19
0.0025
-4.398000258e-19
-7.680220824e-19
0.0025
-4.595854112e-19
-2.404753902e-19
0.0025
-8.617446233e-19
-5.822209329e-19
0.0025
-1.541525832e-18
-9.619926091e-19
0.0025
-9.822930449e-19
-3.310800287e-19
0.0025
-8.890918021e-19
-5.354059177e-19
0.0025
-1.110746325e-18
-3.020187656e-19
0.0025
-7.834049879e-19
-5.794573464e-19
0.0025
-6.119477466e-19
-4.316401896e-19
0.0025
-5.404432398e-19
-3.135636515e-19
0.0025
-6.91682792e-19
-1.937106971e-19
0.0025
-7.745480858e-19
6.131078982e-19
0.0025
-6.487177779e-19
-3.968699809e-19
0.0025
-1.044952705e-18
-5.512171552e-21
0.0025
-6.752432624e-19
-2.169659235e-20
0.0025
-6.90046409e-19
-2.715530152e-19
0.0025
-5.204099302e-19
-3.928950088e-19
0.0025
-7.20042264e-19
-3.223250002e-19
0.0025
-5.420809247e-19
-3.860124481e-19
0.0025
-6.123359234e-19
-8.429524298e-19
0.0025
-5.396685012e-19
6.857448211e-19
0.0025
-4.469134194e-19
5.243648048e-19
0.0025
-6.701537345e-19
2.192378387e-19
0.0025
-7.385575971e-19
1.890592395e-20
0.0025
-7.973117676e-19
-6.521168365e-19
0.0025
-7.153301463e-19
-8.40118165e-19
0.0025
-8.612722002e-19
-6.338711866e-19
0.0025
-2.790868609e-19
-3.875109871e-19
0.0025
-4.7236824e-19
-6.435445663e-19
0.0025
-2.565478372e-19
-6.430134571e-19
0.0025
2.776343741e-19
6.974115479e-19
0.0025
-2.384386476e-21
5.184628249e-19
0.0025
-3.163943295e-19
4.864541422e-19
0.0025
-6.123521668e-19
-2.120469161e-19
0.0025
-4.398022018e-19
-3.192884128e-19
0.0025
-5.803364344e-19
-5.286281779e-19
0.0025
-4.623857304e-19
-5.432511338e-19
0.0025
-1.366436176e-19
-4.599409251e-19
0.0025
-2.486243484e-19
-3.643284033e-19
0.0025
2.217743548e-20
-6.091144973e-19
0.0025
-3.520816154e-19
-8.349946864e-19
0.0025
-2.759142754e-19
2.003996751e-19
0.0025
-1.369586951e-19
-1.528074885e-19
0.0025
-2.147454179e-19
9.350975143e-20
0.0025
-2.545837565e-21
-2.671632838e-20
0.0025
-8.286126572e-20
-1.034601358e-19
0.0025
-3.740910435e-19
-8.470905284e-20
0.0025
-1.009373801e-19
-1.314204877e-19
0.0025
-4.327294683e-19
-5.367792016e-19
0.0025
-1.00430506e-19
-3.916697001e-19
0.0025
1.700311643e-19
-1.602529717e-19
0.0025
2.19528558e-20
-4.413661166e-19
0.0025
4.140400024e-19
-5.847216935e-19
0.0025
-3.782035167e-19
6.677897887e-19
0.0025
-5.175540275e-19
1.636134501e-19
0.0025
-2.992780226e-20
4.359991779e-20
0.0025
3.349360986e-19
-8.841901339e-20
0.0025
2.795989139e-19
-1.54590012e-19
0.0025
-1.125697864e-19
1.201227331e-20
0.0025
-6.381489755e-19
-4.880632145e-19
0.0025
5.506958827e-20
-1.521720869e-19
0.0025
1.576968321e-19
-1.623230435e-19
0.0025
-1.974038632e-19
-5.092755478e-20
0.0025
2.311558787e-19
-8.291000726e-20
0.0025
3.454751323e-19
5.447987085e-20
0.0025
9.104667237e-19
-9.173612631e-20
0.0025
4.415653343e-19
9.523815993e-19
0.0025
-3.930406948e-19
1.12726679e-19
0.0025
2.384356738e-19
1.361705173e-21
0.0025
-9.748733623e-20
2.621162504e-19
0.0025
2.720239174e-19
-5.717991448e-19
0.0025
-2.889687088e-19
-3.728545385e-19
0.0025
-3.484701676e-19
-4.174356544e-19
0.0025
-3.149428731e-19
1.945262165e-19
0.0025
4.047368137e-19
-1.709559515e-19
0.0025
-3.833753194e-20
-1.029082433e-20
0.0025
-3.19153087e-20
1.204678874e-19
0.0025
-2.550897638e-21
1.724614164e-19
0.0025
2.91419191e-19
-1.153433024e-19
0.0025
7.485066965e-19
4.422012727e-19
0.0025
-8.707300552e-19
-1.486861397e-18
0.0025
-4.15261048e-19
-1.30938214e-18
0.0025
-2.235945357e-19
-1.804394159e-18
0.0025
-1.223189551e-18
-1.750295292e-18
0.0025
-4.362098964e-19
-1.747081335e-18
0.0025
7.121507503e-20
-1.66156785e-18
0.0025
-2.114576014e-18
-1.274976352e-18
0.0025
-8.874283203e-19
-1.707210409e-18
0.0025
-6.813231836e-19
-1.704056187e-18
0.0025
-4.136965245e-20
-1.990838819e-18
0.0025
-1.389261295e-18
-7.740201371e-19
0.0025
-1.420498519e-18
-1.0245886e-18
0.0025
-9.570394028e-19
-1.490487571e-18
0.0025
-6.218831881e-19
-1.90819196e-18
0.0025
-8.912261244e-19
-1.952810465e-18
0.0025
-1.313560241e-18
-7.092082924e-19
0.0025
-1.212883291e-18
-4.44398725e-19
0.0025
-9.059169759e-19
-1.0272319e-18
0.0025
-9.526942471e-19
-1.339499972e-18
0.0025
-1.128095663e-18
-1.693577249e-18
0.0025
-8.105792295e-19
-1.701805054e-18
0.0025
-1.200028913e-18
-1.69206687e-19
0.0025
-1.074541071e-18
-5.089039733e-19
0.0025
-1.133892871e-18
-1.039521176e-18
0.0025
-9.903024701e-19
-1.048274264e-18
0.0025
-1.048496302e-18
-1.347618688e-18
0.0025
-5.836314319e-19
-9.409926043e-19
0.0025
-1.078039704e-18
-7.30888812e-19
0.0025
-1.435431144e-18
-3.819822201e-19
0.0025
-7.228814945e-19
-2.841897563e-19
0.0025
-8.168752536e-19
-4.755097763e-19
0.0025
-1.010208149e-18
-6.554271533e-19
0.0025
-9.403457894e-19
-1.063517354e-18
0.0025
-7.273758415e-19
-6.844057612e-19
0.0025
-8.975876478e-19
-3.24447568e-19
0.0025
-6.744579234e-19
-4.891775915e-19
0.0025
-1.348822307e-18
1.893535227e-19
0.0025
-7.149980067e-19
-5.475144643e-19
0.0025
-9.790695027e-19
-2.887171872e-19
0.0025
-8.37703155e-19
-3.053386015e-19
0.0025
-8.820724256e-19
-4.964927903e-19
0.0025
-5.969113405e-19
-4.347712623e-19
0.0025
-9.234961012e-19
-3.024145006e-19
0.0025
-6.461441287e-19
-5.2393174e-19
0.0025
-6.192703943e-19
-5.29182438e-19
0.0025
-7.884188243e-19
1.143106724e-19
0.0025
-7.932317669e-19
3.140333947e-19
0.0025
-7.727240119e-19
-1.232191977e-19
0.0025
-6.567926242e-19
2.159162422e-19
0.0025
-6.70380181e-19
-2.91325359e-19
0.0025
-9.106101434e-19
-7.758001572e-19
0.0025
-7.972798261e-19
-5.911526816e-19
0.0025
-6.588056419e-19
-3.753135186e-19
0.0025
-5.669197265e-19
-6.778219523e-19
0.0025
-6.522011788e-19
-9.675354365e-19
0.0025
-3.600642574e-19
4.220885465e-19
0.0025
-5.904284697e-19
6.499550053e-19
0.0025
-2.426292969e-19
4.546014242e-19
0.0025
-4.2825746e-19
1.534037227e-19
0.0025
-7.874724557e-19
-4.138611728e-19
0.0025
-5.914703079e-19
-5.174976275e-19
0.0025
-4.613737103e-19
-4.741290982e-19
0.0025
-4.254525391e-19
-6.485408022e-19
0.0025
-6.499826894e-19
-6.87745228e-19
0.0025
-2.097229709e-19
-4.535919616e-19
0.0025
-3.929280737e-19
-8.243588046e-19
0.0025
7.332810033e-20
5.789165388e-19
0.0025
-1.08458854e-19
2.226419522e-19
0.0025
-1.713595283e-19
3.544399295e-19
0.0025
-1.814207527e-19
2.423885291e-19
0.0025
-4.902504251e-19
-3.549086854e-19
0.0025
-4.691522115e-19
-4.073620624e-19
0.0025
-2.913567488e-19
-1.868113454e-19
0.0025
-3.529533255e-19
-5.067266857e-19
0.0025
-1.900933055e-19
-2.906003023e-19
0.0025
-2.219620262e-19
-6.0212923e-19
0.0025
-8.059914166e-20
-8.236324968e-19
0.0025
-1.102271175e-19
-6.375551563e-19
0.0025
-4.246114956e-19
3.958064106e-19
0.0025
-1.098319227e-19
2.389644826e-20
0.0025
8.520758818e-22
3.423314405e-19
0.0025
2.490728814e-19
-2.92072206e-21
0.0025
-4.227931646e-20
3.536005534e-20
0.0025
-6.490122747e-20
8.444520866e-21
0.0025
-2.30276053e-19
-3.355676993e-19
0.0025
-1.331643365e-19
-4.724633533e-20
0.0025
-4.546451103e-20
-2.864521562e-19
0.0025
-6.341466783e-20
-2.137320292e-19
0.0025
1.254885687e-19
-2.143225561e-19
0.0025
3.878795295e-19
-3.976743099e-19
0.0025
3.81906083e-19
-3.866893807e-19
0.0025
8.146738378e-20
1.070988824e-18
0.0025
-8.517547151e-21
5.763626932e-19
0.0025
-1.017023482e-20
4.233441583e-20
0.0025
-1.239747162e-19
-1.031735473e-19
0.0025
8.035900249e-20
-3.007804237e-19
0.0025
1.307376576e-19
-4.678240527e-20
0.0025
-2.720457517e-19
-2.793276189e-19
0.0025
-2.046947106e-19
-2.212609245e-20
0.0025
-6.155900967e-20
-2.688827645e-19
0.0025
2.222704057e-19
1.309352919e-19
0.0025
8.216015116e-20
2.391029152e-19
0.0025
2.826708749e-19
-8.354461245e-20
0.0025
7.002339145e-19
-2.628137097e-19
0.0025
6.171548406e-19
1.561413882e-19
0.0025
-3.332412219e-19
3.464454125e-19
0.0025
-1.690311402e-19
4.6548522e-19
0.0025
8.305584068e-20
-1.10867133e-19
0.0025
-7.639473477e-20
-2.301528938e-19
0.0025
-4.364431759e-19
-3.809607964e-19
0.0025
3.251821202e-19
-3.114770872e-19
0.0025
-3.262161525e-20
-1.741117037e-19
0.0025
-4.602910728e-20
-3.768610306e-19
0.0025
-5.848578119e-19
1.65237123e-19
0.0025
5.351174319e-19
9.710221554e-20
0.0025
1.253205563e-19
2.402575561e-19
0.0025
2.083692479e-19
2.979083293e-19
0.0025
-1.566909344e-20
-1.330797728e-19
0.0025
-2.600154179e-19
-4.216350185e-19
0.0025
3.136908913e-19
4.517109938e-19
0.0025
-1.530399815e-18
-1.085330406e-18
0.0025
-4.842434133e-19
-9.028586058e-19
0.0025
-5.979616554e-19
-1.451030281e-18
0.0025
-6.494570293e-19
-1.46496085e-18
0.0025
-3.938579237e-19
-1.154560568e-18
0.0025
4.082686211e-19
-1.315982596e-18
0.0025
-2.102159197e-18
-1.450532458e-18
0.0025
-7.078174542e-19
-1.637956076e-18
0.0025
-2.10443556e-19
-1.574473345e-18
0.0025
1.559183223e-19
-1.297098648e-18
0.0025
-1.342047077e-18
-6.825238725e-19
0.0025
-1.460549822e-18
-1.550016494e-18
0.0025
-7.971045241e-19
-1.899292062e-18
0.0025
-6.946700105e-19
-1.823225089e-18
0.0025
-3.149741179e-19
-1.642351707e-18
0.0025
-1.214163596e-18
-6.5076675e-19
0.0025
-9.811728198e-19
-5.173790566e-19
0.0025
-1.12059643e-18
-1.461126453e-18
0.0025
-8.101276135e-19
-1.750937726e-18
0.0025
-8.72050146e-19
-1.55653528e-18
0.0025
-2.250924893e-19
-1.911632952e-18
0.0025
-1.023597913e-18
-5.795596673e-19
0.0025
-1.247389559e-18
-5.201241119e-19
0.0025
-1.677055787e-18
-1.343505926e-18
0.0025
-9.339003041e-19
-1.360697034e-18
0.0025
-1.151030346e-18
-1.730650957e-18
0.0025
-3.621595179e-19
-1.118979392e-18
0.0025
-6.101591038e-19
-8.07203103e-19
0.0025
-1.304717626e-18
-1.792976647e-19
0.0025
-7.723188399e-19
-3.804347435e-19
0.0025
-1.162979177e-18
-5.719434606e-19
0.0025
-9.550669343e-19
-8.415418349e-19
0.0025
-7.172713396e-19
-7.90453575e-19
0.0025
-5.88583956e-19
-1.066513212e-18
0.0025
-6.819264422e-19
-5.126449411e-19
0.0025
-9.961742191e-19
-1.016035267e-18
0.0025
-1.696717102e-18
-1.916440389e-19
0.0025
-1.301562666e-18
-5.766849144e-19
0.0025
-8.554335517e-19
-4.31439006e-19
0.0025
-9.209934082e-19
-5.159643693e-19
0.0025
-7.079786648e-19
-6.351890837e-19
0.0025