/*--------------------------------*- C++ -*----------------------------------*\
| =========                 |                                                 |
| \\      /  F ield         | OpenFOAM: The Open Source CFD Toolbox           |
|  \\    /   O peration     | Version:  2212                                  |
|   \\  /    A nd           | Website:  www.openfoam.com                      |
|    \\/     M anipulation  |                                                 |
\*---------------------------------------------------------------------------*/
FoamFile
{
    version     2.0;
    format      ascii;
    arch        "LSB;label=32;scalar=64";
    class       surfaceScalarField;
    location    "0.6";
    object      phiHbyA;
}
// * * * * * * * * * * * * * * * * * * * * * * * * * * * * * * * * * * * * * //

dimensions      [0 3 -1 0 0 0 0];

oriented        oriented;

internalField   nonuniform List<scalar> 
124950
(
0.0025
9.160519526e-20
3.488443423e-19
0.0025
-1.490642013e-19
2.656634722e-19
0.0025
-2.180707171e-20
2.433288254e-19
0.0025
-1.844774395e-19
-2.240495609e-19
0.0025
-7.994335399e-19
-5.384610545e-19
0.0025
-6.061310289e-19
-8.265995237e-20
0.0025
-4.341940792e-19
-2.349580082e-19
0.0025
-2.531285377e-19
1.682554211e-19
0.0025
-2.184364764e-19
3.446704181e-20
0.0025
1.197748814e-19
-3.225784568e-19
0.0025
-7.370075407e-19
-5.149019688e-19
0.0025
-1.322780498e-18
-6.824864198e-19
0.0025
-7.426517555e-19
-4.425095994e-19
0.0025
-6.06017642e-19
9.902823604e-20
0.0025
-4.814697213e-19
-7.903213824e-20
0.0025
-2.893002857e-19
-6.560467424e-19
0.0025
-2.68647449e-19
3.546249277e-19
0.0025
-1.450549223e-19
3.43427179e-20
0.0025
6.094403754e-20
5.621331536e-20
0.0025
1.390809695e-19
-1.140904659e-19
0.0025
-4.367399853e-19
2.530607721e-21
0.0025
-1.141113778e-18
-5.850204759e-19
0.0025
-7.81275287e-19
-4.07442037e-19
0.0025
-1.357783913e-18
-3.715661822e-19
0.0025
-6.741470872e-19
-3.317033082e-19
0.0025
-9.099192981e-19
-6.098114633e-19
0.0025
-4.378584049e-19
4.140532509e-19
0.0025
-1.985171517e-19
1.375673928e-19
0.0025
-3.390502214e-19
-4.141055659e-20
0.0025
2.818744137e-19
-4.251984667e-19
0.0025
1.813815462e-19
4.711721379e-19
0.0025
-4.915416795e-20
2.414516028e-19
0.0025
-3.763016216e-20
1.360551338e-19
0.0025
3.309883027e-20
9.392708464e-20
0.0025
5.829702756e-19
-1.626337473e-21
0.0025
-3.313837002e-19
2.43687563e-19
0.0025
-6.639722354e-19
-2.827657629e-19
0.0025
-9.336042046e-19
-2.996650984e-19
0.0025
-1.399504275e-18
-5.740339402e-19
0.0025
-6.999531406e-19
-4.047426705e-19
0.0025
-8.633676105e-19
-3.798566012e-19
0.0025
-9.872056231e-19
2.638044221e-19
0.0025
-5.01592327e-19
-2.124212141e-19
0.0025
-9.09791094e-19
-2.629323286e-19
0.0025
-1.592164741e-19
-5.053640527e-19
0.0025
-1.32971853e-19
5.137674371e-19
0.0025
-2.788682195e-19
1.553056309e-19
0.0025
-2.342009187e-19
2.462957505e-19
0.0025
-8.303541223e-20
-1.579874916e-19
0.0025
5.614489442e-19
-1.994428232e-19
0.0025
2.741672015e-19
2.690904603e-19
0.0025
3.312730839e-20
3.152721613e-19
0.0025
-2.368306358e-19
7.854202014e-20
0.0025
9.383470225e-20
2.345718354e-19
0.0025
2.099801829e-19
-1.910978134e-19
0.0025
3.622851586e-19
3.433756583e-20
0.0025
-8.371882471e-19
-5.611109673e-19
0.0025
-5.954251497e-19
-3.49777402e-19
0.0025
-1.154105863e-18
-4.104342602e-19
0.0025
-1.040361865e-18
-3.748976017e-19
0.0025
-7.076691216e-19
-3.731701168e-19
0.0025
-6.865356231e-19
-3.374494574e-19
0.0025
-1.282341306e-18
-1.111292574e-20
0.0025
-7.224504973e-19
-6.011164683e-19
0.0025
-1.088202529e-18
-4.944048252e-19
0.0025
-8.495362286e-19
-2.758004915e-19
0.0025
-7.215146042e-19
3.148759864e-19
0.0025
-5.07516098e-19
3.233839598e-19
0.0025
-6.06114617e-19
3.83005005e-20
0.0025
-1.753744981e-19
-3.117248944e-19
0.0025
-3.43457246e-19
-3.508186051e-19
0.0025
4.443815105e-20
2.598530989e-19
0.0025
-3.165498615e-19
4.331280903e-19
0.0025
-3.96145248e-19
-1.221158047e-20
0.0025
-1.244801403e-19
1.607199044e-19
0.0025
1.824789893e-19
-2.878444302e-19
0.0025
3.339372288e-19
-1.847524747e-19
0.0025
-1.237019726e-19
2.455994431e-20
0.0025
1.692321596e-20
8.680567006e-21
0.0025
-3.171969994e-20
1.685752977e-19
0.0025
-5.600993098e-21
9.218650329e-20
0.0025
-2.070463849e-19
-5.929257727e-20
0.0025
2.476281041e-19
-2.224618238e-19
0.0025
1.375580419e-19
-1.620179384e-19
0.0025
-2.001797259e-18
-1.862611033e-18
0.0025
-1.026295716e-18
-6.400838343e-19
0.0025
-1.092050202e-18
-9.05016261e-19
0.0025
-6.8383011e-19
-2.468883191e-19
0.0025
-8.856225132e-19
-4.887141226e-19
0.0025
-6.79328498e-19
-4.16342713e-19
0.0025
-1.046559963e-18
2.63361304e-21
0.0025
-7.537158445e-19
-4.552520037e-19
0.0025
-7.964806187e-19
-4.354436501e-19
0.0025
-9.348626914e-19
-2.716231365e-19
0.0025
-1.14239953e-18
1.56428332e-19
0.0025
-6.795084187e-19
8.101067196e-20
0.0025
-8.892304081e-19
-3.182580852e-19
0.0025
-4.055313575e-19
-3.312262168e-19
0.0025
-7.49714348e-19
-2.325900167e-19
0.0025
-3.327380842e-19
5.485199969e-19
0.0025
-5.185952784e-19
3.053207571e-19
0.0025
-5.334713077e-19
2.08719707e-19
0.0025
-1.163416393e-19
1.094450352e-20
0.0025
-2.9749519e-19
-1.779174351e-19
0.0025
-3.615592179e-20
-4.218379562e-19
0.0025
-6.76708749e-20
3.397218363e-19
0.0025
-2.172894515e-20
1.612042696e-19
0.0025
-2.336521662e-19
2.747990284e-19
0.0025
-1.001966242e-19
1.772133053e-19
0.0025
-3.103801274e-19
-4.527742421e-20
0.0025
3.013323511e-19
-1.592385653e-19
0.0025
5.197121061e-19
-2.261076758e-19
0.0025
-4.172462902e-20
3.249634146e-19
0.0025
1.064448648e-19
1.044913926e-20
0.0025
2.588227812e-19
-7.395267099e-20
0.0025
-1.868579122e-19
6.630272854e-21
0.0025
-3.663326938e-19
-2.922666332e-20
0.0025
7.071336885e-20
-1.176958689e-19
0.0025
1.069361608e-19
-1.658994201e-20
0.0025
3.258847715e-19
-1.539448636e-19
0.0025
-2.870447839e-18
-2.861081529e-18
0.0025
-1.874696546e-18
-1.189212739e-18
0.0025
-8.071368423e-19
-1.253707927e-18
0.0025
-7.896725836e-19
-4.929849446e-19
0.0025
-1.09462347e-18
-7.384462831e-19
0.0025
-7.266495405e-19
-7.036049881e-19
0.0025
-6.028541674e-19
-1.668847145e-19
0.0025
-7.918371535e-19
-3.324346573e-19
0.0025
-6.477333173e-19
-3.663760871e-19
0.0025
-8.662988532e-19
-3.14319471e-19
0.0025
-1.088310229e-18
-1.455677573e-19
0.0025
-9.088324466e-19
-1.701084901e-19
0.0025
-8.899648301e-19
-3.798690769e-19
0.0025
-5.571073182e-19
-2.764266399e-19
0.0025
-7.038713361e-19
-1.921144624e-19
0.0025
-6.920014816e-19
7.849515713e-19
0.0025
-4.8290811e-19
1.113001635e-19
0.0025
-4.877032384e-19
2.597681056e-19
0.0025
-5.610033912e-20
-1.335072347e-20
0.0025
-4.63623868e-19
-9.296958143e-20
0.0025
-6.483221226e-19
-6.126571515e-19
0.0025
5.350150372e-22
6.333723927e-19
0.0025
-1.375692567e-19
4.716763877e-19
0.0025
-4.157119106e-19
2.798959044e-19
0.0025
-3.191801465e-19
-5.577897032e-20
0.0025
-2.887997654e-19
-1.4766338e-19
0.0025
-3.605416417e-20
-1.107077294e-19
0.0025
2.31832608e-20
-5.883559388e-19
0.0025
1.178845959e-19
5.095475067e-19
0.0025
1.614819145e-19
3.611299106e-19
0.0025
1.581839512e-19
1.545550361e-19
0.0025
-3.196039671e-19
-1.105680515e-20
0.0025
-4.148216768e-19
1.923084265e-19
0.0025
7.966249245e-20
-3.710484589e-20
0.0025
3.712705641e-19
-1.536615964e-19
0.0025
4.949374038e-19
-2.450081303e-19
0.0025
2.26481283e-19
6.128218126e-19
0.0025
2.949565804e-19
5.265859179e-22
0.0025
1.545035294e-19
-1.220694537e-19
0.0025
-2.269007125e-19
2.89271575e-20
0.0025
-2.221263232e-19
-8.720976733e-20
0.0025
-1.414597084e-19
-1.596525044e-19
0.0025
-4.202425764e-20
-1.504992584e-19
0.0025
2.080059617e-19
-4.241164423e-22
0.0025
2.594247502e-19
-9.142013477e-20
0.0025
-3.25331948e-18
-3.406960702e-18
0.0025
-2.316625988e-18
-1.411138138e-18
0.0025
-8.896349175e-19
-1.71434817e-18
0.0025
-1.099611839e-18
-6.02971098e-19
0.0025
-1.10521408e-18
-1.132681223e-18
0.0025
-1.155267699e-18
-9.779747606e-19
0.0025
-6.030104552e-19
-4.38806794e-19
0.0025
-1.05887149e-18
-5.022420663e-19
0.0025
-7.374857071e-19
-6.837630244e-19
0.0025
-7.857802148e-19
-7.367420654e-19
0.0025
-9.012250557e-19
-4.827019149e-19
0.0025
-1.001835888e-18
-3.519710506e-19
0.0025
-6.765642518e-19
-2.766527935e-19
0.0025
-6.580533174e-19
-3.01624564e-19
0.0025
-6.709774567e-19
-2.160005561e-19
0.0025
-9.85239862e-19
4.778221449e-19
0.0025
-5.664491207e-19
6.114303643e-21
0.0025
-6.059766447e-19
3.818213535e-20
0.0025
-2.179951671e-19
-8.447705789e-20
0.0025
-4.47016146e-19
-5.076194007e-20
0.0025
-6.833145837e-19
-4.625196517e-19
0.0025
-3.720196626e-19
8.607125828e-19
0.0025
-3.187026531e-19
4.934536845e-19
0.0025
-3.352791888e-19
2.526911489e-19
0.0025
-4.328192287e-19
-1.260373693e-19
0.0025
-2.176232171e-19
-1.548310504e-19
0.0025
-5.426363332e-19
-4.322416115e-19
0.0025
-7.714810037e-19
-9.580124299e-19
0.0025
1.096584869e-19
6.913375951e-19
0.0025
4.267555992e-20
5.87674571e-19
0.0025
-7.617170411e-20
3.470054479e-19
0.0025
-4.110066291e-19
7.981449247e-20
0.0025
-3.511328524e-19
-9.041550284e-20
0.0025
-4.794899099e-20
-1.816597079e-19
0.0025
6.456279275e-21
-3.080679369e-19
0.0025
1.54103173e-19
-6.245469539e-19
0.0025
4.11925323e-19
5.58823312e-19
0.0025
2.108132677e-19
9.690415913e-20
0.0025
1.143628034e-19
6.33433422e-20
0.0025
-3.460313972e-19
1.676316536e-19
0.0025
-3.367328639e-19
-1.473593742e-19
0.0025
-2.469818346e-19
-9.797233856e-20
0.0025
-1.439301215e-19
-4.362008575e-19
0.0025
2.470045953e-19
-3.55979689e-19
0.0025
2.594055126e-19
-3.203029125e-19
0.0025
4.337660249e-20
2.192169201e-19
0.0025
2.524062317e-19
1.120479241e-19
0.0025
-5.515869954e-20
-3.041456308e-19
0.0025
-1.784327516e-19
-2.344441869e-20
0.0025
-5.619161653e-20
2.184987235e-19
0.0025
-9.579210639e-20
-1.395851713e-19
0.0025
1.035339271e-20
-2.771953116e-19
0.0025
-8.261094309e-20
-1.501945966e-19
0.0025
-1.634841977e-19
-2.466329841e-19
0.0025
3.168089375e-19
-1.462872523e-19
0.0025
-2.661412358e-18
-3.041917661e-18
0.0025
-2.278017124e-18
-1.512585122e-18
0.0025
-1.322791387e-18
-2.375798843e-18
0.0025
-1.489925229e-18
-8.564549658e-19
0.0025
-1.175217104e-18
-1.297097093e-18
0.0025
-1.449557828e-18
-1.04086019e-18
0.0025
-6.67184701e-19
-8.073935732e-19
0.0025
-1.306802674e-18
-7.747565016e-19
0.0025
-1.166265181e-18
-1.124418153e-18
0.0025
-7.943054352e-19
-9.674702956e-19
0.0025
-1.092518574e-18
-8.921127862e-19
0.0025
-1.069565912e-18
-4.991806453e-19
0.0025
-7.882927024e-19
-3.714047646e-19
0.0025
-7.518871249e-19
-7.304730812e-19
0.0025
-6.604264234e-19
-6.474334649e-19
0.0025
-8.459343803e-19
-2.0935677e-19
0.0025
-8.783848e-19
-1.965344655e-19
0.0025
-6.164096069e-19
-1.978684186e-19
0.0025
-4.830140495e-19
-1.816605632e-19
0.0025
-5.21918743e-19
-2.000851361e-19
0.0025
-6.080838578e-19
-6.349180332e-20
0.0025
-8.362184395e-19
7.367137797e-19
0.0025
-4.920695616e-19
3.379633855e-19
0.0025
-4.034957168e-19
3.066605509e-19
0.0025
-4.59829573e-19
-1.677519543e-19
0.0025
-2.406511126e-19
-1.157196484e-19
0.0025
-5.609381679e-19
-4.120483444e-19
0.0025
-7.66990732e-19
-7.013330164e-19
0.0025
-4.492949259e-19
9.656146767e-19
0.0025
-4.544062186e-19
6.683454449e-19
0.0025
-2.238361295e-19
3.569046935e-19
0.0025
-3.685971998e-19
2.457110186e-19
0.0025
-1.390553731e-19
-2.264438213e-19
0.0025
-2.299948979e-19
-4.632095745e-19
0.0025
-4.597161977e-19
-6.125043365e-19
0.0025
-2.320389769e-19
-8.917396102e-19
0.0025
3.101688398e-19
3.941655146e-19
0.0025
-9.989779198e-20
2.79998255e-19
0.0025
-5.229850249e-20
2.767188295e-19
0.0025
-2.594794487e-19
1.890551854e-19
0.0025
-3.792841116e-19
-5.413111058e-20
0.0025
-2.051849357e-19
-3.47112937e-20
0.0025
-1.38752993e-19
-5.50924383e-19
0.0025
5.134272526e-20
-4.771613824e-19
0.0025
1.246203666e-19
-4.011248669e-19
0.0025
1.79753751e-19
2.73583971e-19
0.0025
3.52566556e-19
2.447043194e-19
0.0025
-4.065385773e-20
-1.924989286e-19
0.0025
-2.141075473e-19
9.011793153e-20
0.0025
-1.52692527e-19
2.074958171e-19
0.0025
-1.393071948e-19
-2.173955069e-19
0.0025
-3.159622266e-19
-4.251831949e-19
0.0025
-1.969192245e-19
-5.398278214e-19
0.0025
-7.899915107e-20
-5.312026953e-19
0.0025
4.349326036e-19
-3.565429773e-19
0.0025
-3.802314615e-19
2.646213572e-19
0.0025
6.100109477e-20
-2.446767666e-19
0.0025
-2.603079154e-19
-4.721631912e-19
0.0025
9.769349025e-20
3.620064705e-20
0.0025
-1.840039491e-19
9.688179884e-20
0.0025
4.214588129e-20
1.766456825e-19
0.0025
1.335270796e-19
-2.852973218e-19
0.0025
-1.693980302e-19
-3.67963035e-19
0.0025
-2.621719548e-19
-6.28688576e-20
0.0025
1.348007125e-19
-1.849593694e-19
0.0025
5.586282437e-20
-2.450251942e-19
0.0025
-1.344038319e-18
-2.384276826e-18
0.0025
-1.890056434e-18
-1.635390941e-18
0.0025
-1.227641299e-18
-2.352374036e-18
0.0025
-1.978626806e-18
-1.51928015e-18
0.0025
-1.35510881e-18
-1.44894999e-18
0.0025
-1.5321416e-18
-1.563134195e-18
0.0025
-1.064368299e-18
-9.22647218e-19
0.0025
-1.44388737e-18
-1.078782493e-18
0.0025
-1.273748439e-18
-1.301475925e-18
0.0025
-9.76153566e-19
-1.079873894e-18
0.0025
-1.324415097e-18
-1.05266075e-18
0.0025
-1.006686941e-18
-6.166951666e-19
0.0025
-1.061830537e-18
-8.261038902e-19
0.0025
-7.930045126e-19
-1.13156544e-18
0.0025
-1.122354064e-18
-9.117933445e-19
0.0025
-1.039639642e-18
-6.462012599e-19
0.0025
-1.062859321e-18
-6.033649997e-19
0.0025
-7.998187045e-19
-3.838977416e-19
0.0025
-8.937387107e-19
-4.006142737e-19
0.0025
-4.325893965e-19
-5.039076839e-19
0.0025
-4.925570604e-19
-1.928045337e-19
0.0025
-1.028262271e-18
-2.974305994e-20
0.0025
-7.594688859e-19
-1.017195232e-19
0.0025
-6.964273745e-19
1.080273258e-19
0.0025
-5.947069809e-19
-1.811037068e-19
0.0025
-4.03087738e-19
-1.913124175e-19
0.0025
-4.681087832e-19
-2.282652202e-19
0.0025
-7.929674508e-19
-2.094712568e-19
0.0025
-8.268974358e-19
7.14821578e-19
0.0025
-8.226863652e-19
3.422260442e-19
0.0025
-5.979124671e-19
3.49958387e-19
0.0025
-4.693099714e-19
2.201918186e-19
0.0025
-6.050908371e-20
-1.991713125e-19
0.0025
-4.494598019e-19
-5.357717509e-19
0.0025
-5.527930561e-19
-6.522671168e-19
0.0025
-6.021936927e-19
-7.056791597e-19
0.0025
-1.573903931e-19
5.43561266e-19
0.0025
-6.110029244e-19
5.464567341e-19
0.0025
-4.881985342e-19
3.541741257e-19
0.0025
-2.166661108e-19
7.999167355e-20
0.0025
-3.061897318e-19
-1.605821397e-19
0.0025
-3.035459346e-19
-1.49565562e-19
0.0025
-2.126258783e-19
-5.403370914e-19
0.0025
-1.197552354e-19
-4.036672138e-19
0.0025
-1.709017174e-19
-5.567636978e-19
0.0025
2.77606095e-19
3.422813806e-19
0.0025
2.132211205e-19
3.515937363e-19
0.0025
-1.946740152e-19
-1.146745411e-21
0.0025
-2.247197462e-19
6.08488326e-20
0.0025
-2.681249352e-19
-2.050433905e-20
0.0025
-2.248428023e-19
-1.213466329e-19
0.0025
-3.911195305e-19
-2.224563342e-19
0.0025
-2.760871948e-20
-7.282341741e-19
0.0025
-3.427688604e-20
-4.638849991e-19
0.0025
2.513874084e-19
-4.209106917e-19
0.0025
-4.293643851e-19
2.520221955e-19
0.0025
2.126750601e-19
-5.397342352e-20
0.0025
-9.696869837e-20
-2.016544367e-19
0.0025
1.226121284e-19
1.362346061e-19
0.0025
-1.287549917e-19
2.877032144e-19
0.0025
-1.871870283e-20
6.747605206e-20
0.0025
-2.534230095e-20
-3.85035675e-19
0.0025
-3.17512158e-19
-4.95606407e-19
0.0025
-9.390118759e-20
-2.696501387e-19
0.0025
2.382079485e-19
-3.451065147e-19
0.0025
2.110801049e-19
-3.382717216e-19
0.0025
-5.526133916e-19
3.430783787e-19
0.0025
-1.466007747e-19
-1.043369287e-19
0.0025
-2.03568268e-19
-9.016720699e-20
0.0025
3.181850169e-19
-2.169704037e-19
0.0025
3.719337995e-20
2.022004955e-19
0.0025
-7.642074409e-20
-7.537412697e-20
0.0025
-8.495989546e-20
-2.857413758e-19
0.0025
-2.488866425e-20
-2.329172422e-19
0.0025
-7.818666297e-20
-2.07128466e-19
0.0025
-2.059787192e-19
-2.652476375e-19
0.0025
-5.605826127e-21
2.018795166e-19
0.0025
2.808468442e-19
-1.502412198e-19
0.0025
-3.928527054e-19
-1.935076466e-18
0.0025
-1.306961398e-18
-1.885838165e-18
0.0025
-8.618819763e-19
-2.287808113e-18
0.0025
-1.833784924e-18
-1.743261363e-18
0.0025
-1.18755847e-18
-1.564575186e-18
0.0025
-1.495804772e-18
-2.206610248e-18
0.0025
-1.869113729e-18
-1.02791606e-18
0.0025
-1.507810294e-18
-1.36684592e-18
0.0025
-1.250159913e-18
-1.519748896e-18
0.0025
-9.900958069e-19
-1.55973656e-18
0.0025
-1.40041262e-18
-6.449956703e-19
0.0025
-1.122150724e-18
-6.466831004e-19
0.0025
-1.066286472e-18
-1.135779005e-18
0.0025
-8.861064823e-19
-1.38646544e-18
0.0025
-1.622614526e-18
-1.456050334e-18
0.0025
-1.341562221e-18
-8.348177408e-19
0.0025
-9.850127581e-19
-8.85194242e-19
0.0025
-7.941808445e-19
-3.965568735e-19
0.0025
-9.591090789e-19
-7.39277763e-19
0.0025
-5.947612868e-19
-7.299599359e-19
0.0025
-7.619024468e-19
-6.352317068e-19
0.0025
-1.067502343e-18
-2.905227549e-19
0.0025
-9.859963189e-19
-5.697023175e-19
0.0025
-9.169836395e-19
-2.553255631e-19
0.0025
-1.023928795e-18
-3.696567785e-19
0.0025
-5.090360259e-19
-4.540222819e-19
0.0025
-3.115629205e-19
-2.251239173e-19
0.0025
-6.475959956e-19
-7.518995045e-20
0.0025
-1.448975046e-18
-6.015453403e-19
0.0025
-8.319676363e-19
9.298555797e-21
0.0025
-8.921909341e-19
1.079905135e-19
0.0025
-6.925825596e-19
9.286850394e-20
0.0025
-3.152122797e-19
-1.812558697e-19
0.0025
-3.8716791e-19
-2.593659721e-19
0.0025
-6.095117728e-19
-3.391860542e-19
0.0025
-8.056065341e-19
-5.315852858e-19
0.0025
-3.146334341e-19
7.034810291e-19
0.0025
-8.360450094e-19
3.787957996e-19
0.0025
-9.294913756e-19
2.492378035e-19
0.0025
-4.868093952e-19
-4.220785636e-20
0.0025
-3.074811316e-19
-3.867192045e-19
0.0025
-5.559441046e-19
-2.161044506e-19
0.0025
-4.376972699e-19
-5.455276513e-19
0.0025
-3.784403589e-19
-4.537742408e-19
0.0025
-5.884592592e-19
-6.409588384e-19
0.0025
9.345181994e-20
7.667666151e-19
0.0025
-1.165376655e-19
4.838413627e-19
0.0025
-7.06513413e-19
1.467905828e-19
0.0025
-4.817010492e-19
-1.208708357e-19
0.0025
-4.740994367e-19
-3.734447847e-19
0.0025
-5.196332815e-19
-4.687412584e-19
0.0025
-4.797101172e-19
-3.520188539e-19
0.0025
-6.02932986e-20
-4.886108477e-19
0.0025
-1.142950646e-19
-2.607890494e-19
0.0025
1.715612105e-19
-4.556877312e-19
0.0025
-9.867642028e-20
2.534474094e-19
0.0025
2.994175458e-19
1.316028882e-19
0.0025
-1.416506974e-19
2.17140264e-19
0.0025
-1.488884152e-19
-8.820802204e-21
0.0025
-1.953643077e-19
1.263001689e-19
0.0025
-2.334554863e-19
-1.893389425e-19
0.0025
-3.977411569e-19
-3.924756497e-19
0.0025
-3.23995131e-19
-4.367971318e-19
0.0025
7.985074394e-20
-4.153477817e-19
0.0025
6.183533933e-20
-4.605698571e-19
0.0025
2.962433256e-20
-6.332802237e-19
0.0025
-6.649496852e-19
3.654133522e-19
0.0025
-2.362516809e-19
-5.721143621e-20
0.0025
-7.453542693e-20
7.565451312e-20
0.0025
4.303489174e-19
-6.440316776e-20
0.0025
9.943898598e-20
1.174758047e-19
0.0025
-1.626125095e-19
-5.11345562e-20
0.0025
-1.314382693e-19
-3.141929563e-19
0.0025
-6.368394251e-20
-2.286303546e-19
0.0025
-6.309720514e-20
-3.251591364e-19
0.0025
-1.230342569e-19
-3.929978124e-19
0.0025
2.119696011e-19
3.276614965e-20
0.0025
4.366146679e-19
-3.128258763e-19
0.0025
-2.179793918e-20
8.340058863e-19
0.0025
-2.611471797e-19
-1.516014099e-19
0.0025
2.956590547e-20
7.420922386e-20
0.0025
2.026131877e-19
3.685790754e-20
0.0025
4.528657496e-19
4.800073044e-20
0.0025
-2.144144006e-19
-8.754530828e-20
0.0025
-3.476810858e-19
-1.105935152e-19
0.0025
-9.669653894e-20
-4.626191656e-19
0.0025
1.959883837e-19
-2.294608087e-20
0.0025
-2.120346622e-19
-5.519901327e-20
0.0025
3.758185289e-20
-3.903961493e-20
0.0025
-4.303977478e-20
2.555988281e-19
0.0025
7.53804786e-19
1.459325857e-19
0.0025
-2.178255183e-19
-1.665489907e-18
0.0025
-6.624433151e-19
-1.850064408e-18
0.0025
-3.273506702e-19
-2.084770344e-18
0.0025
-1.657992242e-18
-1.829312263e-18
0.0025
-9.200204268e-19
-1.803603056e-18
0.0025
-8.871658065e-19
-2.337353779e-18
0.0025
-1.929211452e-18
-1.216346995e-18
0.0025
-1.252647966e-18
-1.582873118e-18
0.0025
-1.2762546e-18
-1.857187266e-18
0.0025
-6.995087723e-19
-2.175753218e-18
0.0025
-1.452131718e-18
-4.745903424e-19
0.0025
-1.235989716e-18
-8.289202399e-19
0.0025
-9.963600784e-19
-1.279514762e-18
0.0025
-8.398311743e-19
-1.572753906e-18
0.0025
-1.507938521e-18
-2.014826153e-18
0.0025
-1.55923795e-18
-8.810112625e-19
0.0025
-1.172277583e-18
-7.157380049e-19
0.0025
-9.335483589e-19
-7.190751901e-19
0.0025
-9.682099604e-19
-1.019414843e-18
0.0025
-1.029482191e-18
-1.261224178e-18
0.0025
-1.029627968e-18
-1.326307769e-18
0.0025
-9.553347865e-19
-4.186808559e-20
0.0025
-8.545361311e-19
-6.074818732e-19
0.0025
-8.02660098e-19
-6.648240163e-19
0.0025
-9.438965594e-19
-5.735615538e-19
0.0025
-5.9449129e-19
-7.485674345e-19
0.0025
-5.2538331e-19
-3.327522513e-19
0.0025
-7.909471665e-19
-4.814474787e-19
0.0025
-1.562257507e-18
-9.089381608e-19
0.0025
-8.638929837e-19
-3.097503478e-19
0.0025
-9.013984349e-19
-4.131208347e-19
0.0025
-9.918543623e-19
-1.421565998e-19
0.0025
-7.43521215e-19
-4.687408797e-19
0.0025
-4.859987996e-19
-4.454122905e-19
0.0025
-6.185091117e-19
-2.487458173e-19
0.0025
-7.947221241e-19
-1.583889174e-19
0.0025
-8.237200074e-19
5.793019526e-19
0.0025
-7.993546894e-19
-4.144775444e-19
0.0025
-1.00533121e-18
1.922771845e-19
0.0025
-7.731430323e-19
-1.011820742e-19
0.0025
-5.189351781e-19
-3.328009818e-19
0.0025
-5.322717642e-19
-2.823404295e-19
0.0025
-6.220617713e-19
-2.329680486e-19
0.0025
-5.788000986e-19
-3.723260906e-19
0.0025
-6.999983481e-19
-7.890296865e-19
0.0025
-3.410531611e-19
7.436085073e-19
0.0025
-4.638227588e-19
5.132027482e-19
0.0025
-7.959441862e-19
2.626533296e-19
0.0025
-6.297421515e-19
-4.507611904e-20
0.0025
-7.125348895e-19
-6.541048748e-19
0.0025
-6.912775727e-19
-7.577252659e-19
0.0025
-6.910896023e-19
-5.190198521e-19
0.0025
-3.294450972e-19
-4.01401911e-19
0.0025
-4.620989177e-19
-3.393329288e-19
0.0025
-2.544642113e-19
-6.220196952e-19
0.0025
9.623814824e-20
5.593939686e-19
0.0025
1.003536035e-19
6.058359714e-19
0.0025
-2.452160993e-19
5.985597125e-19
0.0025
-4.312668933e-19
-1.356453992e-19
0.0025
-4.126722806e-19
-3.198775523e-19
0.0025
-5.018054623e-19
-4.305235065e-19
0.0025
-4.275454689e-19
-4.468550735e-19
0.0025
-3.603425694e-19
-4.547210073e-19
0.0025
-1.030607504e-19
-4.326550485e-19
0.0025
-4.050288258e-20
-4.778424508e-19
0.0025
-1.545404355e-19
-7.125441503e-19
0.0025
-3.777465064e-19
1.848190229e-19
0.0025
-9.069212729e-20
-2.357729799e-20
0.0025
-8.507726425e-20
1.402936259e-19
0.0025
8.558253131e-20
5.207367006e-20
0.0025
-1.552901363e-19
-8.871759523e-20
0.0025
-3.102070425e-19
-4.644409363e-20
0.0025
-1.910188395e-19
-1.81771668e-19
0.0025
-4.003971455e-19
-4.436222561e-19
0.0025
-8.466528632e-20
-4.333550608e-19
0.0025
2.276891837e-20
-2.599760044e-19
0.0025
5.842673784e-20
-3.717930988e-19
0.0025
4.552489471e-19
-5.824484412e-19
0.0025
-1.78487696e-19
8.444743098e-19
0.0025
-3.450427952e-19
9.76855782e-20
0.0025
2.247649677e-20
9.131674302e-20
0.0025
3.147338031e-19
7.061734353e-20
0.0025
3.914225387e-19
3.03979647e-20
0.0025
-1.623019402e-19
-1.766120403e-19
0.0025
-5.335129724e-19
-3.529230987e-19
0.0025
-4.598246713e-20
-3.771595727e-19
0.0025
8.092369566e-20
-3.333056254e-20
0.0025
-1.522930294e-19
-5.83974149e-20
0.0025
2.415079325e-19
-1.011056228e-19
0.0025
2.484282664e-19
7.737929796e-20
0.0025
8.656100585e-19
-4.485256e-21
0.0025
2.78348327e-19
7.298965572e-19
0.0025
-2.317141928e-19
2.553141882e-19
0.0025
1.604328415e-19
-1.459538032e-19
0.0025
-1.310988182e-19
1.526452093e-19
0.0025
1.39328632e-19
-3.261773195e-19
0.0025
-4.162492327e-20
-1.786139237e-19
0.0025
-2.863044537e-19
-2.720298862e-19
0.0025
-2.161943854e-19
1.227295202e-19
0.0025
1.470032018e-19
-2.317214606e-19
0.0025
1.676489844e-19
1.651015217e-19
0.0025
4.260718314e-20
2.705885965e-19
0.0025
8.347874617e-20
2.498802197e-19
0.0025
3.615638778e-19
-9.140488761e-20
0.0025
3.867803338e-19
3.483846465e-19
0.0025
-7.791308201e-19
-1.309508049e-18
0.0025
-4.094529625e-19
-1.344936057e-18
0.0025
-2.652535828e-19
-1.742513552e-18
0.0025
-1.298769472e-18
-1.641585749e-18
0.0025
-5.076720186e-19
-1.809494475e-18
0.0025
8.472780084e-21
-1.726583704e-18
0.0025
-1.974412182e-18
-1.390258272e-18
0.0025
-1.065377531e-18
-1.816095893e-18
0.0025
-8.761979119e-19
-1.860549897e-18
0.0025
-3.052905076e-19
-2.142565851e-18
0.0025
-1.447697637e-18
-6.512291607e-19
0.0025
-1.227080915e-18
-1.198562799e-18
0.0025
-1.026256136e-18
-1.570870516e-18
0.0025
-7.003639e-19
-1.874288199e-18
0.0025
-1.033342227e-18
-1.975872299e-18
0.0025
-1.294813245e-18
-6.699550997e-19
0.0025
-1.15787969e-18
-5.622392142e-19
0.0025
-1.015591243e-18
-1.18894701e-18
0.0025
-9.943838623e-19
-1.341880688e-18
0.0025
-1.164466586e-18
-1.560356693e-18
0.0025
-7.991318769e-19
-1.661663989e-18
0.0025
-1.049742906e-18
-6.026549535e-20
0.0025
-9.978160232e-19
-5.663023106e-19
0.0025
-1.141162931e-18
-1.009080526e-18
0.0025
-8.626481839e-19
-9.302981796e-19
0.0025
-8.222966182e-19
-1.21165664e-18
0.0025
-6.146928828e-19
-8.746949072e-19
0.0025
-9.113160745e-19
-7.669314692e-19
0.0025
-1.485966269e-18
-6.408280404e-19
0.0025
-8.915125826e-19
-3.237527464e-19
0.0025
-7.705510818e-19
-5.324834093e-19
0.0025
-9.621801123e-19
-5.518089182e-19
0.0025
-8.825776769e-19
-8.645719322e-19
0.0025
-7.025763316e-19
-6.06990965e-19
0.0025
-7.936938893e-19
-3.850994511e-19
0.0025
-7.649801877e-19
-3.94639638e-19
0.0025
-1.217059241e-18
2.866792581e-19
0.0025
-6.9146617e-19
-5.828451945e-19
0.0025
-9.173298526e-19
-1.796584799e-19
0.0025
-8.632361634e-19
-2.406900317e-19
0.0025
-8.583940594e-19
-4.998895393e-19
0.0025
-6.711407833e-19
-4.641138654e-19
0.0025
-8.131176563e-19
-1.760805671e-19
0.0025
-6.626939013e-19
-3.19059535e-19
0.0025
-5.521180352e-19
-5.923961411e-19
0.0025
-6.717639304e-19
2.614392557e-19
0.0025
-6.616902806e-19
4.154118821e-19
0.0025
-8.043748725e-19
5.488615382e-20
0.0025
-6.368551344e-19
8.410855338e-20
0.0025
-8.20602158e-19
-4.423192368e-19
0.0025
-8.292448237e-19
-6.707244748e-19
0.0025
-8.146205569e-19
-4.98467983e-19
0.0025
-5.574974022e-19
-3.925754903e-19
0.0025
-6.345872295e-19
-4.686641411e-19
0.0025
-5.839253014e-19
-8.708175395e-19
0.0025
-3.075569404e-19
5.580179782e-19
0.0025
-3.150150834e-19
7.24118548e-19
0.0025
-1.742130371e-19
6.58748447e-19
0.0025
-3.933163798e-19
3.300605691e-20
0.0025
-7.350726329e-19
-4.247030636e-19
0.0025
-5.155472823e-19
-5.111108118e-19
0.0025
-5.1332722e-19
-5.283640235e-19
0.0025
-4.24356201e-19
-4.772852361e-19
0.0025
-5.151944358e-19
-4.104586064e-19
0.0025
-2.263786645e-19
-4.338230996e-19
0.0025
-3.919603919e-19
-8.119258137e-19
0.0025
1.698206699e-19
6.205538025e-19
0.0025
-1.09712458e-19
2.956231293e-19
0.0025
-8.301350769e-20
4.217590374e-19
0.0025
-1.550289848e-19
2.5494713e-19
0.0025
-3.730080676e-19
-2.753242202e-19
0.0025
-3.618486857e-19
-2.641752719e-19
0.0025
-1.677436577e-19
-2.34392338e-19
0.0025
-4.620901169e-19
-3.705531344e-19
0.0025
-2.828386238e-19
-3.915499984e-19
0.0025
-1.090214791e-19
-4.95957666e-19
0.0025
-1.683799423e-19
-6.709912114e-19
0.0025
1.18241625e-19
-7.316918816e-19
0.0025
-3.790556679e-19
3.923774882e-19
0.0025
-1.990001788e-19
7.36246051e-20
0.0025
-3.238339001e-20
1.954691875e-19
0.0025
1.850949077e-19
8.420762665e-20
0.0025
5.418740269e-20
1.477425051e-20
0.0025
-1.726584435e-19
-6.268876516e-20
0.0025
-2.757902972e-19
-3.579906506e-19
0.0025
-1.953175669e-19
-1.154897769e-19
0.0025
-1.745325754e-19
-3.122704418e-19
0.0025
-3.178237303e-20
-1.577467628e-19
0.0025
1.339346217e-19
-1.337391102e-19
0.0025
4.353638396e-19
-2.200096622e-19
0.0025
5.989903472e-19
-2.5177722e-19
0.0025
1.614342315e-19
8.772813275e-19
0.0025
-1.792689079e-19
4.231494527e-19
0.0025
7.505562895e-20
5.293938063e-20
0.0025
-1.086822776e-19
5.152475939e-20
0.0025
5.581865675e-20
-3.546810487e-19
0.0025
3.672680721e-21
-2.405383933e-19
0.0025
-3.2690958e-19
-2.177787578e-19
0.0025
-1.736499622e-19
-1.976543878e-20
0.0025
6.473707445e-20
-1.649562768e-19
0.0025
1.20431276e-19
1.255725526e-19
0.0025
1.293781058e-19
2.839765709e-19
0.0025
3.560922e-19
7.068425658e-20
0.0025
7.345164904e-19
-9.224131165e-20
0.0025
6.563131786e-19
3.203493472e-19
0.0025
-1.045348564e-19
2.665693042e-19
0.0025
-1.891492263e-19
5.157426181e-19
0.0025
1.520522315e-19
-6.026164935e-20
0.0025
4.352342501e-20
-3.738242518e-20
0.0025
-1.67813148e-19
-1.7955532e-19
0.0025
1.482704858e-19
-2.554942593e-19
0.0025
7.646438326e-20
-1.93742088e-19
0.0025
-1.488995458e-19
-2.294181474e-19
0.0025
-2.668697447e-19
4.309597888e-20
0.0025
2.16008185e-19
5.580245698e-21
0.0025
6.439275678e-20
3.020361638e-19
0.0025
1.945496385e-19
3.769562214e-19
0.0025
7.198963911e-20
1.003608301e-19
0.0025
1.963145704e-20
-1.804250914e-19
0.0025
2.873882384e-19
5.204408326e-19
0.0025
-1.386419855e-18
-8.777330801e-19
0.0025
-4.709409434e-19
-8.212958179e-19
0.0025
-6.016981087e-19
-1.459574688e-18
0.0025
-9.265829385e-19
-1.471708819e-18
0.0025
-3.593510015e-19
-1.223172033e-18
0.0025
2.360987357e-19
-1.329490996e-18
0.0025
-1.928637496e-18
-1.498572771e-18
0.0025
-9.393318279e-19
-1.756625366e-18
0.0025
-3.381618284e-19
-1.561680089e-18
0.0025
1.708472086e-19
-1.437482727e-18
0.0025
-1.456980884e-18
-7.362922664e-19
0.0025
-1.259777003e-18
-1.550026244e-18
0.0025
-8.661780006e-19
-1.765685028e-18
0.0025
-5.994439948e-19
-1.787771365e-18
0.0025
-3.920212392e-19
-1.664261549e-18
0.0025
-1.311689517e-18
-6.631519505e-19
0.0025
-1.174117536e-18
-8.459796122e-19
0.0025
-1.081805183e-18
-1.546489985e-18
0.0025
-8.843249339e-19
-1.62703981e-18
0.0025
-8.605367034e-19
-1.523627495e-18
0.0025
-3.112124597e-19
-1.623265786e-18
0.0025
-9.860636901e-19
-4.480777305e-19
0.0025
-1.136757919e-18
-5.569941587e-19
0.0025
-1.541081744e-18
-1.299711951e-18
0.0025
-8.380654861e-19
-1.288786289e-18
0.0025
-1.1184285e-18
-1.571957222e-18
0.0025
-3.730572626e-19
-1.187395882e-18
0.0025
-7.073451326e-19
-8.519490656e-19
0.0025
-1.415504836e-18
-3.355345318e-19
0.0025
-8.873028313e-19
-4.156379676e-19
0.0025
-1.064059016e-18
-5.463262677e-19
0.0025
-9.671604512e-19
-9.529872546e-19
0.0025
-8.190385579e-19
-9.919256481e-19
0.0025
-6.998183929e-19
-1.037030478e-18
0.0025
-7.498028567e-19
-5.294199432e-19
0.0025
-8.103231568e-19
-8.481358065e-19
0.0025
-1.647063197e-18
-1.744948035e-19
0.0025
-1.076568901e-18
-5.553740276e-19
0.0025
-9.631907628e-19
-4.926158322e-19
0.0025
-8.788724296e-19
-5.404341409e-19
0.0025
-7.880386346e-19
-6.101509675e-19
0.0025