/*--------------------------------*- C++ -*----------------------------------*\
| =========                 |                                                 |
| \\      /  F ield         | OpenFOAM: The Open Source CFD Toolbox           |
|  \\    /   O peration     | Version:  2212                                  |
|   \\  /    A nd           | Website:  www.openfoam.com                      |
|    \\/     M anipulation  |                                                 |
\*---------------------------------------------------------------------------*/
FoamFile
{
    version     2.0;
    format      ascii;
    arch        "LSB;label=32;scalar=64";
    class       volVectorField;
    location    "0.6";
    object      U;
}
// * * * * * * * * * * * * * * * * * * * * * * * * * * * * * * * * * * * * * //

dimensions      [0 1 -1 0 0 0 0];

internalField   nonuniform List<vector> 
42875
(
(1 5.760305079e-17 2.501452987e-16)
(1 7.401955443e-17 6.394283993e-17)
(1 1.911826016e-19 1.144130824e-16)
(1 -6.187235265e-17 2.827952699e-17)
(1 -2.400153792e-16 -3.689901507e-16)
(1 -2.322439152e-16 -8.111505054e-17)
(1 -5.912755603e-17 8.227965837e-17)
(1 -7.835513973e-17 7.56494587e-17)
(1 -1.340621768e-16 5.840237395e-17)
(1 7.720480199e-17 -2.954227433e-16)
(1 -2.255773022e-16 -1.956027916e-16)
(1 -4.620025799e-16 -3.837404741e-16)
(1 -2.730550723e-16 -1.939967878e-16)
(1 -3.292447226e-16 1.878488301e-17)
(1 -2.510578434e-16 -7.647986599e-17)
(1 -1.006678063e-16 -2.784566609e-16)
(1 -1.653605109e-16 1.616879319e-16)
(1 -6.322203014e-17 8.069106096e-17)
(1 3.73997464e-17 -6.998792073e-17)
(1 1.15301999e-16 -9.221721038e-17)
(1 -1.804808605e-16 1.090835735e-16)
(1 -2.83909323e-16 -2.859759197e-16)
(1 -3.360245713e-16 -1.893717063e-16)
(1 -6.491414621e-16 -1.66556248e-16)
(1 -2.594717573e-16 -2.226656441e-16)
(1 -3.020325231e-16 -1.726702541e-16)
(1 -1.535930934e-16 1.742858114e-16)
(1 -1.012675313e-16 2.631187738e-17)
(1 -2.39708153e-16 -6.051407373e-17)
(1 1.65522808e-16 -2.937844373e-16)
(1 -2.067759747e-17 2.476039571e-16)
(1 -1.446457773e-17 1.875019117e-16)
(1 2.262064577e-17 -3.995321307e-17)
(1 6.264982714e-17 8.87725365e-17)
(1 3.293811319e-16 -9.5773089e-17)
(1 -1.085339709e-16 3.209772823e-16)
(1 -1.29022109e-16 -5.631041939e-17)
(1 -3.72544548e-16 -9.770013113e-17)
(1 -5.719726799e-16 -2.237132788e-16)
(1 -3.075759404e-16 -1.971218156e-16)
(1 -2.531421093e-16 -1.326109637e-16)
(1 -4.854133302e-16 7.951961556e-17)
(1 -2.158602972e-16 -1.617354825e-16)
(1 -4.404921137e-16 -7.623431882e-17)
(1 -6.731946119e-17 -3.157858301e-16)
(1 -1.631502071e-16 1.67186856e-16)
(1 -3.436427361e-17 1.352282138e-16)
(1 -1.157531036e-16 4.207030033e-17)
(1 6.785788091e-17 -5.052555693e-17)
(1 1.587754455e-16 -8.847930939e-17)
(1 2.358202552e-16 1.813607245e-16)
(1 2.824280704e-17 1.904763699e-16)
(1 -4.674965329e-17 1.184970751e-17)
(1 1.568228089e-17 1.81671161e-16)
(1 3.057494276e-16 -1.820458666e-17)
(1 2.240828114e-16 5.72207628e-17)
(1 -3.06891227e-16 -5.64864726e-17)
(1 -1.624117825e-16 -3.141327909e-17)
(1 -4.690029768e-16 -4.010037662e-17)
(1 -3.563761758e-16 -1.257709212e-16)
(1 -3.486584095e-16 -1.930146157e-16)
(1 -3.031771999e-16 -1.447457261e-16)
(1 -5.737409844e-16 6.643357938e-17)
(1 -2.480011754e-16 -2.945086141e-16)
(1 -3.869680887e-16 -1.495922302e-16)
(1 -3.600416533e-16 -1.390360007e-16)
(1 -3.533021098e-16 1.033394869e-16)
(1 -2.078064262e-16 1.256913822e-16)
(1 -3.021729658e-16 -5.468067684e-17)
(1 -1.009517984e-16 -2.201734031e-16)
(1 -1.864869148e-16 -1.295200259e-16)
(1 5.892162812e-18 9.376470923e-17)
(1 -2.171403252e-16 1.529956187e-16)
(1 -7.793974661e-17 -6.311627202e-17)
(1 -1.052575134e-16 1.351383194e-16)
(1 2.071309449e-16 -1.487220158e-16)
(1 1.031518512e-16 -1.420480892e-16)
(1 -1.27007185e-17 8.695442215e-18)
(1 3.61792319e-17 7.135188601e-17)
(1 -1.271394205e-16 9.5980148e-17)
(1 1.170996643e-16 2.14160368e-17)
(1 -4.251121145e-17 5.921884154e-17)
(1 2.240160967e-16 -1.889658516e-16)
(1 6.341709148e-17 -4.355780202e-17)
(1 -7.503759708e-16 -9.093199377e-16)
(1 -4.08548203e-16 -1.702274461e-16)
(1 -4.187489355e-16 -4.426717199e-16)
(1 -2.762320002e-16 -3.039160444e-17)
(1 -4.914412262e-16 -2.087365836e-16)
(1 -3.155805824e-16 -2.465682027e-16)
(1 -4.776946427e-16 1.919644634e-16)
(1 -1.589079796e-16 -1.620021671e-16)
(1 -2.220630592e-16 -1.357018358e-16)
(1 -3.334445341e-16 -1.272072893e-16)
(1 -4.674910534e-16 8.056049257e-17)
(1 -3.326978819e-16 -7.184950948e-17)
(1 -4.415305331e-16 -2.507727895e-16)
(1 -4.044127247e-16 -2.94155019e-16)
(1 -3.709429752e-16 -5.574776408e-17)
(1 -2.741487563e-16 2.062357416e-16)
(1 -2.61875693e-16 1.122630232e-16)
(1 -2.07277216e-16 1.69904816e-16)
(1 2.337230476e-17 1.094199263e-17)
(1 -1.600687289e-16 -1.205633447e-16)
(1 -4.77907243e-17 -1.876205853e-16)
(1 -2.505404934e-17 6.624961499e-17)
(1 -7.997295858e-17 5.291850313e-17)
(1 -2.396826157e-16 1.409420004e-16)
(1 4.789568636e-17 2.539651878e-17)
(1 -6.426480849e-17 -5.586820613e-17)
(1 1.076243362e-16 -1.249850246e-16)
(1 1.629042882e-16 -1.148711968e-16)
(1 -1.590044993e-16 1.631527962e-16)
(1 -3.692512919e-17 3.672491874e-17)
(1 1.399206294e-16 -7.731760595e-17)
(1 -5.345415407e-17 3.562282688e-17)
(1 -1.760205672e-16 6.984330859e-17)
(1 1.134681657e-16 -9.719181166e-17)
(1 1.529807733e-16 -9.844350909e-17)
(1 1.543170499e-16 -1.456881901e-16)
(1 -1.146652801e-15 -1.336617404e-15)
(1 -8.714046164e-16 -4.70830656e-16)
(1 -3.083079596e-16 -7.506850104e-16)
(1 -3.991529504e-16 -1.487145085e-16)
(1 -4.770319814e-16 -3.409004178e-16)
(1 -2.905987611e-16 -3.509922876e-16)
(1 -2.203115248e-16 1.692946968e-17)
(1 -2.400806756e-16 -1.11925221e-16)
(1 -2.784857661e-16 -1.677065597e-16)
(1 -3.584834841e-16 -1.282239838e-16)
(1 -3.391285482e-16 -2.968148989e-17)
(1 -4.075818765e-16 -1.469974291e-16)
(1 -3.138805474e-16 -1.808234723e-16)
(1 -3.76630409e-16 -1.643691917e-16)
(1 -3.185468179e-16 -9.393009899e-17)
(1 -4.37473689e-16 3.267002385e-16)
(1 -2.493060493e-16 1.449129846e-17)
(1 -2.717218318e-16 1.373418361e-16)
(1 5.427988989e-17 -7.019879949e-17)
(1 -2.911514011e-16 -1.047180687e-17)
(1 -2.629720363e-16 -1.247775877e-16)
(1 -5.031444822e-17 2.083415548e-16)
(1 -1.929720248e-16 2.045891512e-16)
(1 -2.80546139e-16 1.110791938e-16)
(1 -6.635793468e-17 -1.905273856e-18)
(1 -7.818389951e-17 -1.18509901e-16)
(1 -9.119342678e-17 -7.494735073e-17)
(1 -7.46841922e-17 -2.521377985e-16)
(1 -3.32835436e-17 2.1395712e-16)
(1 8.643009954e-17 2.186955532e-16)
(1 5.991081849e-17 3.463597459e-17)
(1 -1.225627179e-16 7.460253888e-17)
(1 -1.439177836e-16 6.306687522e-17)
(1 9.349001215e-17 -8.157067328e-17)
(1 2.30550725e-16 -5.174145859e-17)
(1 1.859344782e-16 -1.070058859e-16)
(1 5.571332604e-17 2.79348206e-16)
(1 7.501604607e-17 1.445457351e-16)
(1 6.396745793e-17 2.243558027e-18)
(1 -4.933581366e-17 -2.068502578e-17)
(1 -1.618986214e-16 -9.500090892e-17)
(1 -3.614446819e-17 -8.491804225e-17)
(1 4.940562174e-17 -2.940996142e-17)
(1 2.121321205e-16 3.403466701e-17)
(1 2.531474906e-16 -2.330067666e-17)
(1 -1.446491775e-15 -1.483961577e-15)
(1 -1.175891788e-15 -5.852900412e-16)
(1 -3.881890832e-16 -1.046509243e-15)
(1 -6.742263937e-16 -1.942826294e-16)
(1 -2.584124384e-16 -5.812646012e-16)
(1 -4.520691545e-16 -3.918035513e-16)
(1 -2.164340943e-16 -1.585198085e-16)
(1 -4.156977899e-16 -2.802641199e-16)
(1 -2.929703258e-16 -2.862746529e-16)
(1 -3.508064351e-16 -2.419958414e-16)
(1 -2.527778132e-16 -1.81012681e-16)
(1 -4.195101923e-16 -2.019676725e-16)
(1 -2.628386367e-16 -1.17929374e-16)
(1 -3.593559229e-16 -1.300480943e-16)
(1 -2.987588398e-16 -2.366407434e-16)
(1 -5.142136901e-16 1.995701103e-16)
(1 -3.696673753e-16 -7.599025162e-17)
(1 -3.737128208e-16 -3.074822535e-17)
(1 -5.359525133e-17 -1.434137696e-16)
(1 -2.005198031e-16 -3.13508377e-17)
(1 -2.840428853e-16 -5.030460681e-17)
(1 -1.797886532e-16 3.270313604e-16)
(1 -1.841356983e-16 2.183058994e-16)
(1 -1.679990026e-16 3.704152512e-17)
(1 -7.551695264e-17 9.939532077e-18)
(1 -1.18332128e-16 3.185610718e-17)
(1 -3.467002758e-16 -8.321874658e-17)
(1 -3.500805573e-16 -4.160193204e-16)
(1 5.981480907e-18 2.874762405e-16)
(1 3.057578011e-17 2.625062595e-16)
(1 -1.337568342e-16 1.440263471e-16)
(1 -2.803479931e-16 9.88894753e-17)
(1 -1.023782786e-16 -1.820555258e-16)
(1 -1.30146597e-17 -1.434750669e-16)
(1 -3.393852789e-17 -1.013036005e-16)
(1 7.348647497e-17 -3.593733554e-16)
(1 1.550038543e-16 2.144070684e-16)
(1 7.711641427e-17 2.337743552e-16)
(1 1.388279381e-16 8.249472879e-17)
(1 -1.591767787e-16 7.163617665e-17)
(1 -1.964341043e-16 -1.464494232e-16)
(1 -2.81366587e-17 -6.398497677e-18)
(1 4.795779263e-17 -1.376199877e-17)
(1 1.951031534e-16 -1.39731182e-16)
(1 1.498062027e-16 -7.592656201e-17)
(1 1.053943345e-16 2.392297114e-16)
(1 1.20363322e-16 2.684835236e-16)
(1 3.943874644e-18 -2.020928284e-16)
(1 -1.882213492e-16 -8.738893625e-17)
(1 2.007318676e-17 -4.28536073e-17)
(1 -1.705738618e-16 -7.6359828e-17)
(1 -1.474137477e-16 -8.991985568e-17)
(1 1.156832934e-16 -2.142096522e-16)
(1 5.758615076e-17 -1.658074587e-17)
(1 1.38881892e-16 -3.09456228e-17)
(1 -1.174611254e-15 -1.345735097e-15)
(1 -1.224281603e-15 -6.032782558e-16)
(1 -5.647427014e-16 -1.282871578e-15)
(1 -7.714452554e-16 -2.592407803e-16)
(1 -2.866618897e-16 -6.154603504e-16)
(1 -6.042890841e-16 -3.812541879e-16)
(1 -2.662950857e-16 -3.364432155e-16)
(1 -6.001074498e-16 -3.569457886e-16)
(1 -4.233203069e-16 -4.166066342e-16)
(1 -3.133110431e-16 -3.928844096e-16)
(1 -3.213639721e-16 -3.610696309e-16)
(1 -4.515594083e-16 -2.65176173e-16)
(1 -3.114747705e-16 -1.514962271e-16)
(1 -2.708017482e-16 -3.352931953e-16)
(1 -3.731888735e-16 -4.136623913e-16)
(1 -4.612061047e-16 -6.107991452e-17)
(1 -3.987719781e-16 -2.099011699e-16)
(1 -3.025282788e-16 -1.514727651e-16)
(1 -2.212327853e-16 -1.059096673e-16)
(1 -2.249674152e-16 -1.380008638e-16)
(1 -2.410133145e-16 -5.02411425e-17)
(1 -3.130075726e-16 4.065820912e-16)
(1 -1.507103305e-16 1.057830784e-16)
(1 -1.410027345e-16 6.072550432e-17)
(1 -1.634790452e-16 1.29443908e-17)
(1 -1.277361068e-16 7.105420948e-17)
(1 -2.163988491e-16 -3.561965966e-17)
(1 -2.895628542e-16 -3.210845272e-16)
(1 -2.307610017e-16 3.837142521e-16)
(1 -1.481100741e-16 2.722175354e-16)
(1 -1.80653988e-16 1.184666448e-16)
(1 -3.066476151e-16 1.389668717e-16)
(1 -5.610548081e-17 -2.284969764e-16)
(1 -1.63931043e-16 -1.925789434e-16)
(1 -3.905782211e-16 -3.374642926e-16)
(1 -1.312133383e-16 -4.799931221e-16)
(1 6.482440547e-17 1.237950301e-16)
(1 -6.272089931e-17 2.399430538e-16)
(1 1.199666825e-17 1.610396035e-16)
(1 -1.479597922e-16 1.181654541e-16)
(1 -1.67887046e-16 -5.655844759e-17)
(1 -3.470820124e-18 -7.515766228e-17)
(1 -6.233585269e-17 -1.235625859e-16)
(1 -1.072143377e-17 -2.493182399e-16)
(1 1.021951196e-16 -2.174346771e-16)
(1 2.131826436e-16 1.532389089e-16)
(1 7.062685415e-17 1.995629626e-16)
(1 -3.522670616e-17 -1.444364397e-16)
(1 -1.023440344e-16 -7.107779902e-17)
(1 -1.08003772e-16 3.936834984e-17)
(1 -1.396593346e-16 -7.194108344e-17)
(1 -1.354143889e-16 -1.218321349e-16)
(1 2.030634196e-17 -3.46987806e-16)
(1 -4.997488875e-18 -1.698282682e-16)
(1 1.344786512e-16 -1.810775195e-16)
(1 -3.9929935e-17 2.528347826e-16)
(1 8.857538698e-17 -2.180685189e-17)
(1 -1.205930258e-16 -2.073792474e-16)
(1 -1.224547875e-16 -1.321359017e-16)
(1 -6.274877728e-17 9.266772219e-18)
(1 4.404305314e-17 1.434149648e-16)
(1 7.892206336e-17 -1.392326964e-16)
(1 -1.586802984e-16 -1.897633921e-16)
(1 -1.642621427e-16 -2.217151426e-17)
(1 2.16548597e-16 -2.008265719e-16)
(1 5.721983771e-17 -3.051247853e-17)
(1 -4.583129166e-16 -9.57727311e-16)
(1 -9.82560648e-16 -6.586398317e-16)
(1 -4.542182073e-16 -1.093204159e-15)
(1 -6.5766055e-16 -5.817236128e-16)
(1 -5.126169697e-16 -6.032636119e-16)
(1 -6.553068684e-16 -6.245384986e-16)
(1 -5.593128018e-16 -3.750209296e-16)
(1 -6.362474366e-16 -4.512219648e-16)
(1 -5.541448772e-16 -4.798276269e-16)
(1 -4.350529211e-16 -4.743677808e-16)
(1 -3.274140819e-16 -4.116895934e-16)
(1 -4.919342899e-16 -3.497899016e-16)
(1 -4.664167324e-16 -3.572994933e-16)
(1 -2.20555227e-16 -5.176370875e-16)
(1 -5.826411747e-16 -2.961919218e-16)
(1 -5.973087307e-16 -2.263821022e-16)
(1 -4.103352808e-16 -3.523001788e-16)
(1 -3.053541172e-16 -1.874799026e-16)
(1 -2.975973089e-16 -1.467554979e-16)
(1 -2.025939573e-16 -3.231187271e-16)
(1 -2.697706962e-16 -2.309798548e-16)
(1 -1.969307234e-16 6.518252915e-18)
(1 -3.052932528e-16 -1.810806443e-16)
(1 -2.384477744e-16 1.502941526e-17)
(1 -2.770615335e-16 -7.083737788e-17)
(1 -2.049656651e-16 -7.749997833e-17)
(1 -1.726724535e-16 -8.926468509e-17)
(1 -3.124104054e-16 -6.249441379e-17)
(1 -4.034038824e-16 3.238463472e-16)
(1 -2.949669787e-16 1.73905177e-16)
(1 -2.191263761e-16 1.069733888e-16)
(1 -2.618053264e-16 1.286724478e-16)
(1 -9.346724845e-17 -1.733015207e-16)
(1 -1.975439621e-16 -1.516188963e-16)
(1 -3.217485339e-16 -3.299975215e-16)
(1 -2.600430628e-16 -2.63792694e-16)
(1 -2.298701004e-16 2.396204733e-16)
(1 -3.369401047e-16 3.044073494e-16)
(1 -1.083439018e-16 1.960551849e-16)
(1 -3.357923161e-17 1.359290495e-16)
(1 -3.755941844e-17 4.016751176e-17)
(1 -6.580468433e-17 -3.458856561e-17)
(1 -6.995529804e-17 -2.844737442e-16)
(1 -1.649865451e-16 -2.892437678e-16)
(1 -9.304867773e-17 -3.847019896e-16)
(1 1.642009087e-16 1.77849285e-16)
(1 -3.733846351e-17 1.130230224e-16)
(1 -1.1679975e-16 8.341862806e-18)
(1 -8.177024026e-17 7.231512772e-18)
(1 -2.133349277e-16 1.749810647e-17)
(1 -1.051662246e-16 -6.425548483e-17)
(1 -3.533375747e-17 -8.101168172e-17)
(1 1.692909844e-17 -3.594743762e-16)
(1 -4.533601919e-17 -1.86896552e-16)
(1 1.133466289e-16 -8.943482505e-17)
(1 -8.510680325e-17 1.792128236e-16)
(1 1.688902024e-16 7.3794143e-18)
(1 -6.61966742e-17 -5.152224305e-17)
(1 -5.765594856e-17 -8.878431238e-17)
(1 -3.023545363e-17 7.893166119e-17)
(1 7.332618783e-17 6.787878175e-17)
(1 -1.110063712e-16 -1.424813858e-16)
(1 -1.391587523e-16 -2.011732827e-16)
(1 -1.980051792e-17 -1.070747607e-16)
(1 1.657686032e-16 -2.110309861e-16)
(1 9.173962574e-17 -1.412383194e-16)
(1 -3.205150672e-16 2.890414388e-16)
(1 1.717638334e-18 -7.61337767e-18)
(1 -1.644806121e-16 -2.561478135e-16)
(1 7.961976167e-17 -2.691700907e-16)
(1 -1.826816128e-16 1.89673179e-16)
(1 4.876200876e-17 -3.235982799e-17)
(1 7.881891976e-17 -2.602628361e-17)
(1 -8.675860386e-17 -1.356683101e-16)
(1 -4.243594033e-17 -1.94495236e-16)
(1 -3.2890055e-17 -4.516723931e-17)
(1 1.949101562e-17 6.214551052e-17)
(1 2.230360149e-16 -1.946466139e-16)
(1 -5.878555191e-17 -6.82640219e-16)
(1 -5.896854496e-16 -7.384948321e-16)
(1 -2.587785918e-16 -9.738237532e-16)
(1 -5.486637032e-16 -6.351025308e-16)
(1 -4.997152608e-16 -6.342355885e-16)
(1 -5.865558297e-16 -7.415909226e-16)
(1 -9.440810806e-16 -4.580436211e-16)
(1 -6.078638098e-16 -6.381510373e-16)
(1 -6.056471579e-16 -5.740066856e-16)
(1 -5.002097224e-16 -6.2979399e-16)
(1 -3.276148877e-16 -2.5921407e-16)
(1 -5.697004284e-16 -2.964105186e-16)
(1 -4.627964952e-16 -4.842438799e-16)
(1 -3.543581772e-16 -5.91739143e-16)
(1 -7.396711645e-16 -4.03641561e-16)
(1 -8.059580971e-16 -3.382454077e-16)
(1 -3.301656763e-16 -4.60458885e-16)
(1 -3.583021174e-16 -1.653576227e-16)
(1 -3.628259315e-16 -3.624697497e-16)
(1 -3.781828639e-16 -4.203983927e-16)
(1 -4.363560154e-16 -4.009856135e-16)
(1 -2.467693398e-16 -9.995027055e-17)
(1 -4.471193055e-16 -2.835893794e-16)
(1 -3.241593563e-16 -1.508277249e-16)
(1 -4.426564911e-16 -1.685930283e-16)
(1 -1.536568263e-16 -2.317728291e-16)
(1 -7.235576479e-17 -1.18594885e-16)
(1 -2.572704042e-16 7.610684303e-18)
(1 -6.266937484e-16 -2.294739477e-16)
(1 -3.39343451e-16 -6.307704389e-17)
(1 -3.545311957e-16 -3.483812635e-17)
(1 -2.949409595e-16 2.17060925e-17)
(1 -1.623892754e-16 -6.891838205e-17)
(1 -1.600995564e-16 -1.190039249e-16)
(1 -2.899449675e-16 -1.683685854e-16)
(1 -3.568362107e-16 -1.433452781e-16)
(1 -3.193540721e-16 4.11722642e-16)
(1 -4.10910953e-16 1.301898102e-16)
(1 -3.453365097e-16 6.314861901e-17)
(1 -1.588410814e-16 1.447127708e-16)
(1 6.843645313e-18 2.846774674e-17)
(1 -2.174532766e-16 9.046048588e-18)
(1 -8.642931779e-17 -3.470576535e-16)
(1 -2.372437271e-16 -2.202532359e-16)
(1 -2.416602104e-16 -3.724923762e-16)
(1 -3.845339631e-18 3.343882209e-16)
(1 -2.274857834e-16 1.378815429e-16)
(1 -3.547427004e-16 8.754383302e-17)
(1 -1.865495971e-16 7.443771904e-17)
(1 -2.468849978e-16 -1.197250718e-16)
(1 -1.999130211e-16 -2.247909068e-16)
(1 -1.130167064e-16 -1.907383048e-16)
(1 -4.003291279e-17 -2.43535364e-16)
(1 -1.222578638e-16 -1.310933986e-16)
(1 1.089606748e-16 -1.533428058e-16)
(1 1.214324486e-17 2.050746065e-16)
(1 1.981176195e-16 7.126526908e-17)
(1 -9.416529176e-17 1.045688971e-16)
(1 -1.099256867e-16 -1.312202152e-17)
(1 -1.197882869e-16 -2.837338937e-17)
(1 -1.026926003e-16 -1.143196503e-16)
(1 -2.429856908e-16 -1.535070536e-16)
(1 -1.968839801e-17 -1.459688801e-16)
(1 2.890433653e-17 -2.335403143e-16)
(1 3.163558841e-17 -1.636430512e-16)
(1 -6.243475911e-19 -2.302695096e-16)
(1 -3.552083898e-16 2.023252231e-16)
(1 -3.853188384e-17 -5.454914469e-17)
(1 -3.373531933e-17 -8.622979708e-17)
(1 1.235089707e-16 -1.417537268e-16)
(1 -9.212703124e-17 5.700812381e-17)
(1 -1.036221657e-16 1.201322694e-16)
(1 9.234522101e-17 -8.876102411e-17)
(1 -9.977265806e-17 -1.594606579e-16)
(1 3.886757595e-17 -1.670104905e-16)
(1 3.567094024e-18 -1.072784866e-16)
(1 9.442216553e-17 -3.4818765e-17)
(1 2.281880607e-16 -1.684207908e-16)
(1 -2.598524732e-16 4.571379013e-16)
(1 -1.399103084e-16 2.241565797e-18)
(1 -2.800608551e-17 -1.507163053e-16)
(1 1.682282037e-16 1.307808131e-16)
(1 1.466680677e-16 6.589583494e-17)
(1 -9.036698457e-17 1.727581125e-18)
(1 -1.547616699e-16 -1.360188393e-16)
(1 2.093990462e-17 -3.083141759e-16)
(1 -5.178117627e-17 -2.257958191e-17)
(1 -1.395993951e-16 -4.284288709e-17)
(1 -1.63862194e-18 -2.19169474e-16)
(1 2.114922291e-17 1.325029223e-16)
(1 4.108913685e-16 -9.197375644e-17)
(1 5.849132046e-18 -5.634189855e-16)
(1 -1.701021093e-16 -6.966580952e-16)
(1 -7.455307892e-17 -8.348300244e-16)
(1 -4.534521797e-16 -6.501455967e-16)
(1 -3.807268623e-16 -8.043568993e-16)
(1 -2.452249524e-16 -8.894223485e-16)
(1 -9.30103468e-16 -4.992324878e-16)
(1 -4.586077612e-16 -7.179025387e-16)
(1 -6.26448214e-16 -6.13023002e-16)
(1 -3.233522346e-16 -1.022250931e-15)
(1 -5.530819987e-16 -2.779637175e-16)
(1 -6.470415511e-16 -3.627149479e-16)
(1 -4.419919836e-16 -4.616223944e-16)
(1 -3.54506196e-16 -6.664773338e-16)
(1 -6.66930239e-16 -6.913486647e-16)
(1 -7.680873718e-16 -3.981993885e-16)
(1 -3.85564287e-16 -2.334253077e-16)
(1 -4.288415761e-16 -1.771669639e-16)
(1 -3.479318277e-16 -4.67472166e-16)
(1 -5.397576795e-16 -5.26886717e-16)
(1 -5.342025932e-16 -7.527869621e-16)
(1 -3.075356952e-16 -9.167377577e-18)
(1 -4.893787548e-16 -2.793631968e-16)
(1 -2.504118189e-16 -2.608935245e-16)
(1 -3.851377165e-16 -1.322342833e-16)
(1 -8.194957327e-17 -2.671783385e-16)
(1 -2.003555078e-16 -1.746689755e-16)
(1 -3.26739536e-16 -1.253630298e-16)
(1 -6.320648173e-16 -3.752524031e-16)
(1 -3.831685933e-16 -1.488995812e-16)
(1 -4.284124365e-16 -2.134355953e-16)
(1 -4.26586053e-16 -1.179384392e-16)
(1 -2.724390042e-16 -2.000439585e-16)
(1 -1.390638458e-16 -1.9373021e-16)
(1 -2.015126439e-16 -6.840336621e-17)
(1 -3.340470677e-16 -9.47535352e-17)
(1 -5.779982922e-16 3.451188354e-16)
(1 -3.562462233e-16 -3.821369034e-16)
(1 -3.68550785e-16 -7.141532691e-18)
(1 -3.203793197e-16 4.077477227e-18)
(1 -1.585126656e-16 5.134124376e-17)
(1 -1.720383743e-16 -7.218708888e-17)
(1 -1.648067836e-16 -1.4906323e-16)
(1 -2.46273081e-16 -1.378547385e-16)
(1 -2.831921828e-16 -3.13357359e-16)
(1 1.544248879e-17 3.199500986e-16)
(1 -2.779021467e-16 1.687426734e-16)
(1 -4.592446998e-16 6.307039222e-17)
(1 -3.040494959e-16 1.018943519e-16)
(1 -2.705288567e-16 -1.868554836e-16)
(1 -2.728968315e-16 -3.30272585e-16)
(1 -2.626577123e-16 -1.680618992e-16)
(1 -5.424726709e-17 -1.713287704e-16)
(1 -2.281433811e-16 -1.958089733e-16)
(1 -7.208396785e-17 -2.643910129e-16)
(1 4.456932987e-18 3.504121515e-16)
(1 1.314466002e-16 2.620587894e-16)
(1 -2.369102254e-16 2.323707323e-16)
(1 -2.977804035e-16 2.997890826e-17)
(1 -2.282947865e-16 -2.139177428e-16)
(1 -2.574904358e-16 -2.554188455e-16)
(1 -2.79957507e-16 -2.470393133e-16)
(1 -6.254612476e-17 -2.462336085e-16)
(1 -1.472710617e-17 -1.845560415e-16)
(1 3.950038644e-17 -1.10118548e-16)
(1 -6.114310669e-17 -2.405483878e-16)
(1 -1.388468277e-16 1.483045728e-16)
(1 3.838338514e-18 -7.803248354e-17)
(1 -4.368330719e-17 -4.924470281e-18)
(1 -7.124781506e-17 6.883105835e-17)
(1 -8.949138984e-17 -9.180943129e-17)
(1 -1.790123982e-16 8.132480572e-17)
(1 -9.06367796e-17 -1.560381045e-16)
(1 -1.973936592e-16 -2.515208469e-16)
(1 5.725715124e-17 -1.860103236e-16)
(1 8.81135236e-18 -1.104018942e-16)
(1 -4.187382868e-17 -1.698271194e-16)
(1 1.711345475e-16 -3.220642345e-16)
(1 -3.048949518e-16 3.023542264e-16)
(1 -2.36298436e-16 5.421292016e-17)
(1 -3.8676061e-17 -4.735344818e-17)
(1 1.831331519e-16 7.980664527e-17)
(1 1.336874311e-16 7.337077895e-18)
(1 -1.20029015e-16 -4.844123545e-17)
(1 -1.402155872e-16 -1.968379713e-16)
(1 3.697152186e-17 -1.391753931e-16)
(1 -4.413273598e-17 -4.036747936e-17)
(1 -7.145853013e-17 -1.065263323e-16)
(1 9.720342634e-17 -1.501232043e-16)
(1 1.547505519e-16 4.99746648e-17)
(1 3.307905737e-16 -1.213333307e-16)
(1 2.296888013e-16 3.626606582e-16)
(1 -1.648762204e-16 3.646882048e-16)
(1 5.633211145e-17 -1.924913706e-16)
(1 6.250385475e-17 1.831554744e-16)
(1 2.620805639e-16 -9.301396006e-17)
(1 -1.995358328e-16 -3.143449925e-17)
(1 -2.085347532e-16 -1.960187232e-16)
(1 -1.334382513e-16 -3.519219176e-17)
(1 1.716084169e-16 -2.006246061e-16)
(1 -8.969928353e-17 3.320532453e-18)
(1 3.014887216e-17 -6.500847361e-17)
(1 -1.583807765e-16 1.151821553e-16)
(1 3.253380485e-16 -5.508091556e-18)
(1 2.859271005e-16 1.228985748e-16)
(1 -4.195092075e-16 -5.592517254e-16)
(1 -7.711019534e-17 -5.56541151e-16)
(1 -4.663161819e-17 -6.796431666e-16)
(1 -2.775147288e-16 -6.118327392e-16)
(1 -1.755344529e-16 -8.103202358e-16)
(1 9.591635358e-17 -8.066587344e-16)
(1 -8.727363159e-16 -4.964585109e-16)
(1 -3.026456477e-16 -7.634528982e-16)
(1 -3.968351646e-16 -6.579714362e-16)
(1 -3.13381686e-18 -9.735145236e-16)
(1 -6.354771731e-16 -2.660316395e-16)
(1 -6.178124063e-16 -4.547729495e-16)
(1 -3.73877107e-16 -5.034666947e-16)
(1 -2.642131789e-16 -8.678742924e-16)
(1 -4.140038438e-16 -8.090414043e-16)
(1 -6.481644553e-16 -2.710399803e-16)
(1 -3.834932866e-16 -1.305862351e-16)
(1 -3.70139643e-16 -2.740577382e-16)
(1 -3.205422398e-16 -5.492458007e-16)
(1 -5.355912969e-16 -6.190349458e-16)
(1 -4.711177067e-16 -1.010866945e-15)
(1 -5.163203083e-16 -3.031794366e-18)
(1 -6.136345155e-16 -3.227881317e-16)
(1 -3.650335103e-16 -3.561360986e-16)
(1 -4.200991075e-16 -4.088292617e-16)
(1 -2.717321542e-16 -3.27324031e-16)
(1 -2.760610522e-16 -4.950912339e-16)
(1 -3.90479223e-16 -2.653245938e-16)
(1 -4.820663405e-16 -2.19294689e-16)
(1 -2.016217415e-16 -4.209434387e-17)
(1 -4.04485586e-16 -1.537471946e-16)
(1 -3.170942752e-16 -2.819736224e-16)
(1 -3.325801057e-16 -3.141055196e-16)
(1 -2.187127735e-16 -3.710984829e-16)
(1 -3.551159317e-16 -4.880174394e-17)
(1 -3.924067563e-16 -3.064891634e-16)
(1 -6.550675838e-16 1.965282446e-16)
(1 -3.668006205e-16 -3.660537589e-16)
(1 -3.135579613e-16 -1.353109574e-16)
(1 -4.034260747e-16 -1.924205174e-16)
(1 -3.579614365e-16 -7.315735429e-17)
(1 -2.605374535e-16 -2.314409445e-16)
(1 -2.623618976e-16 -1.942053589e-16)
(1 -2.572049443e-16 -1.856221859e-16)
(1 -3.25489676e-16 -4.524070613e-17)
(1 -1.282572542e-16 1.237932155e-16)
(1 -2.75231378e-16 1.115694074e-16)
(1 -4.37250296e-16 -4.479254826e-17)
(1 -3.081733687e-16 9.371457015e-17)
(1 -3.032757158e-16 -7.418568045e-17)
(1 -2.865882171e-16 -3.091893091e-16)
(1 -3.442635061e-16 -2.148069416e-16)
(1 -2.053703392e-16 -9.339726211e-17)
(1 -2.282080251e-16 -2.08224286e-16)
(1 -2.417954064e-16 -3.620488012e-16)
(1 -3.554842599e-16 2.382129506e-16)
(1 -1.467510353e-16 2.369585242e-16)
(1 -1.731727772e-16 2.131583363e-16)
(1 -2.777650717e-16 1.255638957e-16)
(1 -3.358351747e-16 -1.294091176e-16)
(1 -2.996173598e-16 -3.34665232e-16)
(1 -3.380150947e-16 -2.847550839e-16)
(1 -1.834335504e-16 -3.044741884e-16)
(1 -1.710963258e-16 -2.228544153e-16)
(1 -1.289897128e-16 -1.905125146e-16)
(1 -1.323369912e-16 -3.033466121e-16)
(1 7.771305794e-17 2.959821339e-16)
(1 -6.599152555e-17 1.377138197e-16)
(1 -6.107350036e-18 1.744504007e-16)
(1 -1.5043171e-16 2.219007732e-16)
(1 -1.77438388e-16 -1.718809866e-16)
(1 -2.15723947e-16 -1.057264563e-16)
(1 -1.072658325e-16 -1.441965174e-16)
(1 -1.616976919e-16 -2.077876809e-16)
(1 -9.224394552e-17 -1.699884692e-16)
(1 -7.007888758e-17 -1.746796161e-16)
(1 -1.239495535e-16 -3.389092987e-16)
(1 3.146372171e-17 -3.470849212e-16)
(1 -1.691579957e-16 2.282191774e-16)
(1 -8.865073014e-17 -4.162724929e-18)
(1 -5.40392678e-17 1.198302069e-17)
(1 8.870424813e-17 6.95220302e-17)
(1 -3.90277954e-17 -3.074265712e-17)
(1 -1.070932305e-16 -2.963261691e-17)
(1 -4.863699673e-17 -1.334384626e-16)
(1 -9.803322152e-17 -1.51971906e-17)
(1 -1.025687392e-16 -1.505335158e-16)
(1 5.499833111e-17 -1.452818604e-16)
(1 4.296402199e-17 -9.200864636e-17)
(1 1.670841703e-16 -1.70714004e-16)
(1 1.591696906e-16 -2.070422398e-16)
(1 4.241390985e-17 4.045631204e-16)
(1 -1.03729181e-16 3.331940611e-16)
(1 9.199657739e-18 2.376245313e-17)
(1 5.310018932e-17 6.490772528e-17)
(1 1.409225383e-16 -9.918172067e-17)
(1 -2.67174314e-17 -4.828137734e-17)
(1 -2.619343179e-16 -7.535915047e-17)
(1 -6.538362731e-17 -1.435873725e-16)
(1 1.095544226e-16 -8.503889403e-17)
(1 -1.967268558e-17 -3.301654955e-17)
(1 9.273906937e-17 3.227797614e-17)
(1 7.522616435e-17 7.761527661e-17)
(1 3.72783624e-16 -3.679516484e-17)
(1 3.263727552e-16 4.354105936e-17)
(1 2.729530993e-17 7.168376169e-17)
(1 -1.080334682e-16 3.001991248e-16)
(1 7.580218987e-17 -1.362687477e-16)
(1 -1.366547257e-16 2.495101857e-17)
(1 -1.330525997e-16 -4.840500717e-17)
(1 5.828850858e-17 -2.407508174e-16)
(1 -9.469961923e-17 -1.666694668e-16)
(1 -8.052180587e-17 -1.800632482e-16)
(1 -5.653499017e-17 1.49683935e-16)
(1 2.050604649e-16 -1.408589411e-18)
(1 -6.85963503e-18 5.757346392e-17)
(1 1.300248098e-16 1.852622689e-16)
(1 -8.266440635e-18 1.07509291e-18)
(1 1.122583366e-16 -1.903790212e-16)
(1 6.204345922e-17 1.760417986e-16)
(1 -7.076175832e-16 -4.429981522e-16)
(1 -2.430956366e-16 -3.95992699e-16)
(1 -2.218044571e-16 -5.575871715e-16)
(1 -1.45408588e-16 -5.795958262e-16)
(1 -1.558090137e-16 -4.914638349e-16)
(1 2.575137457e-16 -6.857008628e-16)
(1 -7.495622036e-16 -5.321615001e-16)
(1 -1.569618346e-16 -7.211858192e-16)
(1 -3.849755705e-17 -6.345212058e-16)
(1 1.706785549e-16 -5.218108255e-16)
(1 -7.131362928e-16 -2.017828792e-16)
(1 -5.238798028e-16 -5.696333886e-16)
(1 -1.980478376e-16 -6.585911438e-16)
(1 -1.545754503e-16 -7.974081374e-16)
(1 -9.164693982e-17 -6.825374984e-16)
(1 -5.019493704e-16 -2.469919337e-16)
(1 -4.181827956e-16 -2.383479685e-16)
(1 -4.172125713e-16 -4.252553901e-16)
(1 -2.71615559e-16 -7.404570012e-16)
(1 -3.581261852e-16 -6.41332095e-16)
(1 -1.545828127e-16 -8.773057495e-16)
(1 -4.321720856e-16 -1.340377363e-16)
(1 -5.930772021e-16 -2.732513672e-16)
(1 -4.384310473e-16 -3.069810121e-16)
(1 -4.643242039e-16 -6.313016985e-16)
(1 -3.896718512e-16 -5.438127051e-16)
(1 -1.705871869e-16 -6.62521611e-16)
(1 -2.56955687e-16 -3.517889032e-16)
(1 -3.688774597e-16 -8.055367508e-17)
(1 -2.173441642e-16 -8.171643374e-17)
(1 -5.798257226e-16 -1.262101598e-16)
(1 -3.000289996e-16 -4.560224832e-16)
(1 -4.242403985e-16 -3.37915454e-16)
(1 -1.774181688e-16 -6.620044762e-16)
(1 -3.916878056e-16 -2.292422983e-16)
(1 -4.938384016e-16 -3.436574525e-16)
(1 -7.272982329e-16 -2.585983434e-17)
(1 -4.953721545e-16 -1.940915926e-16)
(1 -2.235355964e-16 -2.01653052e-16)
(1 -4.417445838e-16 -2.336162052e-16)
(1 -3.49639034e-16 -1.995301858e-16)
(1 -3.168806773e-16 -4.235842079e-16)
(1 -3.208200703e-16 -1.001982943e-16)
(1 -1.671247736e-16 -2.716282511e-16)
(1 -2.989880252e-16 -3.721000079e-17)
(1 -3.863259492e-16 1.378756912e-16)
(1 -2.168349222e-16 -2.059963668e-17)
(1 -4.687974721e-16 -1.115741444e-16)
(1 -3.061656592e-16 -1.032751981e-16)
(1 -3.751355489e-16 -5.48395298e-17)
(1 -2.816797857e-16 -3.738106005e-16)
(1 -4.241356529e-16 -1.394762339e-16)
(1 -2.318060524e-16 3.324122445e-17)
(1 -7.110182777e-17 -1.031539963e-16)
(1 -3.609300231e-16 -4.559488393e-16)
(1 -4.572986048e-16 1.839142133e-16)
(1 -2.971730838e-16 2.108735078e-17)
(1 -2.129655614e-16 1.600262351e-16)
(1 -1.746801511e-16 1.615667861e-17)
(1 -3.625126665e-16 -1.429399506e-17)
(1 -4.08167255e-16 -2.010928373e-16)
(1 -3.130684489e-16 -2.525321137e-16)
(1 -2.47163121e-16 -2.313838236e-16)
(1 -2.468546898e-16 -2.624260615e-16)
(1 -2.280864525e-16 -2.292904193e-16)
(1 -1.432485712e-16 -3.602752131e-16)
(1 6.915024219e-17 4.709832532e-16)
(1 -1.762615244e-16 1.852638175e-16)
(1 2.277812341e-17 2.971207166e-16)
(1 -4.948977959e-17 2.282789521e-16)
(1 -3.27341057e-16 -4.55909581e-17)
(1 -1.465564098e-16 -1.942697969e-16)
(1 -1.008586675e-16 -8.347749885e-17)
(1 -1.539715443e-16 -1.662936978e-16)
(1 -2.965694962e-16 -1.945364909e-16)
(1 -4.307687606e-17 -2.124118158e-16)
(1 -1.73096366e-16 -2.433364633e-16)
(1 -4.653042367e-18 -3.455895133e-16)
(1 3.969980233e-17 2.23133554e-16)
(1 -3.537034151e-17 1.864103187e-16)
(1 -9.242623813e-17 7.981908407e-17)
(1 -4.187335522e-17 1.116541937e-16)
(1 -1.829579898e-16 -2.266802724e-17)
(1 -1.171945884e-16 -1.071689822e-16)
(1 -8.784223262e-17 -1.418596197e-16)
(1 -1.329076816e-16 -8.024876483e-17)
(1 -1.133223519e-16 -1.616499073e-16)
(1 -5.066577449e-17 -1.158815979e-16)
(1 -2.836428785e-17 -2.994384654e-16)
(1 -2.872215364e-17 -2.69519143e-16)
(1 6.736946466e-17 -2.621719108e-16)
(1 -1.427332802e-16 2.345160331e-16)
(1 -9.33532574e-17 3.396775134e-17)
(1 -9.814236811e-18 5.3799826e-17)
(1 5.213274418e-17 1.595680448e-16)
(1 7.077492086e-17 -4.633511701e-17)
(1 -2.408901666e-17 1.840034249e-17)
(1 -1.450865027e-16 -1.751298644e-17)
(1 -5.770714331e-17 -1.747691373e-16)
(1 -1.293244956e-17 -3.956329374e-17)