/*--------------------------------*- C++ -*----------------------------------*\
| =========                 |                                                 |
| \\      /  F ield         | OpenFOAM: The Open Source CFD Toolbox           |
|  \\    /   O peration     | Version:  2212                                  |
|   \\  /    A nd           | Website:  www.openfoam.com                      |
|    \\/     M anipulation  |                                                 |
\*---------------------------------------------------------------------------*/
FoamFile
{
    version     2.0;
    format      ascii;
    arch        "LSB;label=32;scalar=64";
    class       volScalarField;
    location    "1";
    object      p;
}
// * * * * * * * * * * * * * * * * * * * * * * * * * * * * * * * * * * * * * //

dimensions      [0 2 -2 0 0 0 0];

internalField   nonuniform List<scalar> 
42875
(
-3.611105856e-15
-4.760432604e-15
-2.937827338e-15
-3.12880587e-15
-4.531658065e-15
-3.750627788e-15
-3.536945977e-15
-3.444854194e-15
-3.092094807e-15
-2.272564025e-15
-4.288967517e-15
-4.073894842e-15
-4.012417262e-15
-4.12502018e-15
-3.342518514e-15
-4.305636303e-15
-3.373223208e-15
-3.34121383e-15
-2.709746014e-15
-2.168181247e-15
-4.119238633e-15
-4.347452744e-15
-4.343008289e-15
-4.135962152e-15
-3.666206741e-15
-4.194682124e-15
-3.486703148e-15
-3.443111497e-15
-3.58568164e-15
-3.160099549e-15
-2.940251739e-15
-3.621439038e-15
-3.104017674e-15
-2.574440224e-15
-2.814996283e-15
-3.263351669e-15
-4.20711486e-15
-4.228721857e-15
-4.335741594e-15
-3.716721375e-15
-4.019107642e-15
-3.865155835e-15
-3.616042598e-15
-3.837574708e-15
-4.119829572e-15
-3.641632721e-15
-3.00631702e-15
-3.485634274e-15
-3.11731397e-15
-3.509563139e-15
-2.71562334e-15
-3.10455229e-15
-3.121684027e-15
-2.860775202e-15
-3.097076223e-15
-2.484023282e-15
-3.276478949e-15
-3.583520712e-15
-3.752730123e-15
-4.36611718e-15
-4.273476672e-15
-4.153644501e-15
-4.367757601e-15
-4.201469878e-15
-3.959937245e-15
-4.119008167e-15
-3.985125797e-15
-3.54614033e-15
-3.569476216e-15
-3.770236501e-15
-3.908849271e-15
-3.076536238e-15
-3.222893951e-15
-3.046441128e-15
-3.545536185e-15
-3.152520252e-15
-3.457155065e-15
-2.97252888e-15
-2.948313081e-15
-2.789986649e-15
-3.04674384e-15
-3.112552598e-15
-2.750207092e-15
-3.06278714e-15
-4.07017863e-15
-3.611041903e-15
-3.51820381e-15
-3.868472385e-15
-3.919796135e-15
-3.712878259e-15
-4.127776383e-15
-4.203910344e-15
-4.086278269e-15
-3.852741527e-15
-4.545915541e-15
-3.955043164e-15
-4.175334372e-15
-3.73094207e-15
-3.961209011e-15
-3.556949335e-15
-3.968792721e-15
-3.479839612e-15
-3.089795013e-15
-3.56211862e-15
-3.612482896e-15
-3.249251158e-15
-3.24983275e-15
-3.249513756e-15
-3.444848353e-15
-3.651065974e-15
-2.992279582e-15
-3.389740124e-15
-2.759832833e-15
-3.165168829e-15
-2.506195697e-15
-3.048014775e-15
-2.757316797e-15
-3.195066657e-15
-3.06392374e-15
-2.237075455e-15
-3.991479387e-15
-4.166096289e-15
-3.649800215e-15
-3.401759006e-15
-3.789175281e-15
-3.688347452e-15
-3.866274278e-15
-3.916843833e-15
-3.990715349e-15
-3.912931419e-15
-4.121264166e-15
-3.938043929e-15
-4.034586858e-15
-3.798805432e-15
-3.671443414e-15
-4.496450689e-15
-4.209861271e-15
-3.79541221e-15
-3.682570498e-15
-3.866982723e-15
-3.986200062e-15
-3.252700299e-15
-3.686929884e-15
-3.871998229e-15
-3.273136501e-15
-3.301620046e-15
-3.311356659e-15
-3.41036265e-15
-3.213505801e-15
-3.693883699e-15
-3.118356188e-15
-3.126439421e-15
-3.295351424e-15
-2.991910612e-15
-2.922212799e-15
-2.997589569e-15
-2.663632165e-15
-3.265275368e-15
-2.944924084e-15
-2.890284328e-15
-2.305134412e-15
-3.106615432e-15
-2.933329145e-15
-2.570199919e-15
-2.467537065e-15
-3.303894673e-15
-3.671797881e-15
-3.835002248e-15
-3.258365545e-15
-3.970615476e-15
-3.846552942e-15
-3.657398588e-15
-3.519265332e-15
-3.78181192e-15
-3.915539851e-15
-4.157290427e-15
-3.991689272e-15
-3.725065817e-15
-3.737021286e-15
-3.598575823e-15
-4.800405093e-15
-3.553862714e-15
-3.865473074e-15
-3.748604795e-15
-3.410971151e-15
-3.802062133e-15
-3.903291863e-15
-4.02907705e-15
-3.959635092e-15
-3.478774791e-15
-3.504148241e-15
-3.431155723e-15
-3.675877919e-15
-3.110383983e-15
-3.412802657e-15
-3.656364278e-15
-3.448306311e-15
-3.260733286e-15
-3.179417189e-15
-3.099543566e-15
-3.257229095e-15
-3.042606297e-15
-3.658528701e-15
-3.312057136e-15
-3.263692611e-15
-3.597367268e-15
-3.087072415e-15
-2.952453977e-15
-3.071138478e-15
-2.59680232e-15
-3.149362844e-15
-3.85587403e-15
-2.887261671e-15
-2.852940166e-15
-2.779564819e-15
-2.583718901e-15
-2.828684318e-15
-2.626468438e-15
-2.93320249e-15
-2.103960369e-15
-2.97590211e-15
-3.388821284e-15
-3.408084978e-15
-3.48458781e-15
-3.622692481e-15
-3.833010815e-15
-3.14008845e-15
-3.66038575e-15
-3.887982106e-15
-3.71141353e-15
-3.786249514e-15
-3.701164018e-15
-3.577965874e-15
-3.907210096e-15
-3.735507088e-15
-4.249001172e-15
-3.779716924e-15
-3.846251455e-15
-3.814001412e-15
-3.689493897e-15
-3.503022516e-15
-4.757354719e-15
-3.737148232e-15
-3.589703452e-15
-3.328842485e-15
-3.446232031e-15
-3.755426181e-15
-3.50094766e-15
-3.510787437e-15
-3.888309874e-15
-3.845546486e-15
-3.587034723e-15
-3.552478159e-15
-3.639567864e-15
-3.324217598e-15
-4.014171056e-15
-3.305666835e-15
-2.993181183e-15
-3.518128299e-15
-3.317139848e-15
-3.754688734e-15
-3.061202945e-15
-3.060819422e-15
-3.078587812e-15
-3.252168803e-15
-2.914845447e-15
-2.991970888e-15
-3.240509231e-15
-3.206573433e-15
-3.207755911e-15
-3.233059674e-15
-2.751506046e-15
-2.810350876e-15
-2.531243639e-15
-2.959223443e-15
-2.331306353e-15
-3.614051612e-15
-3.506170649e-15
-2.559744421e-15
-2.662214763e-15
-2.83127245e-15
-2.522023616e-15
-2.830160838e-15
-1.98780417e-15
-2.949025137e-15
-2.190975718e-15
-3.322415321e-15
-3.260849049e-15
-3.290609716e-15
-3.431732677e-15
-3.336084794e-15
-3.444476411e-15
-3.574463925e-15
-3.390508236e-15
-3.808135844e-15
-3.596556041e-15
-3.121182056e-15
-3.248727619e-15
-3.465793207e-15
-3.999594539e-15
-3.898249943e-15
-3.850191832e-15
-3.74434946e-15
-3.592026182e-15
-3.979962973e-15
-4.280616808e-15
-3.798363995e-15
-4.01721932e-15
-3.9198566e-15
-3.50594403e-15
-3.515016082e-15
-3.584955218e-15
-3.645939083e-15
-3.642540063e-15
-4.489793122e-15
-3.669901098e-15
-3.611176554e-15
-3.491293915e-15
-3.308790866e-15
-3.787139604e-15
-3.706605743e-15
-4.030550471e-15
-3.349742905e-15
-3.815585232e-15
-3.530659911e-15
-3.515872308e-15
-3.523069985e-15
-3.726020741e-15
-3.287270438e-15
-3.574957253e-15
-3.660395283e-15
-2.762482548e-15
-2.856088924e-15
-3.53946645e-15
-3.815417089e-15
-3.457718358e-15
-3.353608528e-15
-2.883902686e-15
-2.957225774e-15
-3.004475961e-15
-3.309679247e-15
-3.108340802e-15
-2.894561598e-15
-2.428360372e-15
-3.384898375e-15
-3.158864462e-15
-3.02125855e-15
-3.006376503e-15
-2.651417126e-15
-2.97655779e-15
-2.421168744e-15
-2.833378465e-15
-2.78579257e-15
-3.509250034e-15
-2.50186829e-15
-3.6978748e-15
-2.136053594e-15
-2.382302287e-15
-3.389004064e-15
-1.882294487e-15
-1.999880296e-15
-2.644047878e-15
-2.483904786e-15
-2.417187092e-15
-4.051041614e-15
-3.557078721e-15
-3.373524311e-15
-3.388014776e-15
-3.30213384e-15
-3.076685301e-15
-3.64872033e-15
-3.027542798e-15
-3.304830429e-15
-3.60713147e-15
-3.552447106e-15
-3.456143746e-15
-3.54457413e-15
-4.001676364e-15
-3.814710381e-15
-3.36817807e-15
-3.452926887e-15
-3.490400321e-15
-3.756306358e-15
-3.526303519e-15
-4.069732658e-15
-3.467597632e-15
-4.074317498e-15
-3.640674008e-15
-3.555866441e-15
-4.007451565e-15
-3.941457726e-15
-3.553696898e-15
-4.540296281e-15
-3.581761656e-15
-3.666683538e-15
-3.476342418e-15
-3.570762762e-15
-3.534526764e-15
-3.577749452e-15
-3.461967938e-15
-3.808860806e-15
-3.335540236e-15
-3.425566839e-15
-3.426159453e-15
-3.222236404e-15
-3.699330373e-15
-3.926215344e-15
-3.580975577e-15
-3.660105485e-15
-3.165086594e-15
-3.333396545e-15
-3.698463007e-15
-3.7511674e-15
-3.875632094e-15
-3.933717999e-15
-3.663649671e-15
-3.527476086e-15
-3.384018197e-15
-3.333632909e-15
-3.440406685e-15
-2.664424635e-15
-2.720511787e-15
-3.584869645e-15
-3.47414059e-15
-3.219585474e-15
-3.127854018e-15
-3.158155156e-15
-3.241607438e-15
-2.97808023e-15
-3.172205075e-15
-2.665982283e-15
-3.115014704e-15
-2.969322221e-15
-2.623831807e-15
-3.744401627e-15
-2.817848309e-15
-2.661912494e-15
-2.985300547e-15
-3.097718207e-15
-2.760702197e-15
-3.171215648e-15
-2.828070347e-15
-2.567386705e-15
-3.580947252e-15
-2.746619615e-15
-2.915731622e-15
-2.561722504e-15
-2.391635133e-15
-3.369907966e-15
-2.318061793e-15
-1.996751353e-15
-2.24653166e-15
-2.19458663e-15
-2.993914122e-15
-2.731706419e-15
-3.902800109e-15
-3.839460333e-15
-3.648879279e-15
-3.322401246e-15
-3.366471995e-15
-3.347369095e-15
-3.372738705e-15
-2.986212579e-15
-3.072057465e-15
-3.019462909e-15
-3.75027237e-15
-3.314706354e-15
-3.341851972e-15
-3.54352341e-15
-3.858039051e-15
-3.583787644e-15
-3.488156187e-15
-3.595718625e-15
-3.765154347e-15
-3.912682085e-15
-3.90972569e-15
-3.66283948e-15
-2.989237009e-15
-3.586026069e-15
-3.545118199e-15
-3.361910824e-15
-3.841292655e-15
-3.317054623e-15
-3.851891298e-15
-3.472061653e-15
-3.672437178e-15
-3.512338057e-15
-3.883200085e-15
-3.57514839e-15
-3.558505276e-15
-3.249769589e-15
-3.514351541e-15
-3.882288674e-15
-3.823618405e-15
-3.240720299e-15
-3.540365377e-15
-3.529100048e-15
-3.735194127e-15
-3.438942053e-15
-3.235685785e-15
-3.631866882e-15
-3.33439591e-15
-3.074853485e-15
-3.195835673e-15
-3.275745811e-15
-3.655235529e-15
-3.935538231e-15
-4.136652734e-15
-3.68497412e-15
-3.768167994e-15
-3.051450023e-15
-3.206203083e-15
-2.97549202e-15
-3.527115968e-15
-3.562228517e-15
-3.711651466e-15
-3.481858146e-15
-3.312621546e-15
-3.391640372e-15
-3.495252773e-15
-3.537529567e-15
-3.277421967e-15
-2.976095142e-15
-2.52140116e-15
-2.925798425e-15
-3.25115844e-15
-3.324304591e-15
-2.784493591e-15
-3.349160032e-15
-3.183874511e-15
-3.193147331e-15
-3.180198193e-15
-3.067288323e-15
-3.378018692e-15
-2.551797136e-15
-2.870890518e-15
-3.020890772e-15
-3.10544628e-15
-3.003623676e-15
-2.572983466e-15
-2.640145107e-15
-3.013555384e-15
-2.945649845e-15
-3.15532141e-15
-2.721466737e-15
-3.195313787e-15
-2.871547068e-15
-3.385157756e-15
-2.433853569e-15
-3.49817468e-15
-2.940840648e-15
-3.089469691e-15
-2.42633872e-15
-2.837258747e-15
-1.922007395e-15
-2.244529577e-15
-2.477925228e-15
-2.371671242e-15
-2.815084489e-15
-2.498198985e-15
-3.107409693e-15
-3.443121916e-15
-3.80818274e-15
-3.523297301e-15
-3.581685937e-15
-3.740826013e-15
-3.624834492e-15
-3.245371931e-15
-3.322789867e-15
-3.158590866e-15
-3.348271933e-15
-3.29495023e-15
-3.10302133e-15
-3.280643725e-15
-3.085569812e-15
-3.556409933e-15
-3.52353497e-15
-3.347309858e-15
-3.577893821e-15
-3.682409295e-15
-3.139413568e-15
-3.740634618e-15
-3.318367581e-15
-3.499601774e-15
-3.693267514e-15
-3.999171255e-15
-3.934027674e-15
-3.474461827e-15
-3.51310775e-15
-3.42300518e-15
-3.243224598e-15
-3.402387673e-15
-3.332157172e-15
-3.498704451e-15
-3.439410649e-15
-3.085008933e-15
-3.98569747e-15
-3.856394255e-15
-3.714013753e-15
-3.697721596e-15
-3.597271633e-15
-3.151132621e-15
-3.36549675e-15
-3.461898641e-15
-3.698912416e-15
-3.773179088e-15
-4.149403358e-15
-3.75156736e-15
-3.271569171e-15
-3.126822545e-15
-3.560750747e-15
-3.389604638e-15
-3.206098005e-15
-3.154854636e-15
-3.725234042e-15
-3.026461068e-15
-3.327469216e-15
-3.265693726e-15
-3.283518719e-15
-3.695631038e-15
-3.617519361e-15
-3.914367502e-15
-3.829335192e-15
-3.550868268e-15
-3.681499285e-15
-3.601561137e-15
-3.13797809e-15
-3.003568354e-15
-3.236893033e-15
-3.565013443e-15
-3.549207922e-15
-3.666637247e-15
-3.338812183e-15
-3.549520166e-15
-3.565308721e-15
-3.451612478e-15
-3.124055678e-15
-3.467248679e-15
-3.243427105e-15
-2.638239109e-15
-2.685629489e-15
-2.540711815e-15
-3.07502523e-15
-3.236201355e-15
-3.0801543e-15
-3.137548561e-15
-3.211779846e-15
-3.262062094e-15
-3.374938204e-15
-3.248623135e-15
-3.179012233e-15
-3.123989725e-15
-2.867116446e-15
-3.011587811e-15
-2.777522575e-15
-2.931580628e-15
-2.379955121e-15
-2.739504504e-15
-2.568219932e-15
-2.700535872e-15
-2.753761987e-15
-2.538620026e-15
-2.923233468e-15
-2.931590906e-15
-2.642346522e-15
-3.05335664e-15
-2.740417492e-15
-3.010980287e-15
-3.061387077e-15
-2.747752307e-15
-2.466169494e-15
-2.405975327e-15
-2.305095009e-15
-2.544468307e-15
-2.210652168e-15
-2.013566754e-15
-2.314883332e-15
-2.511514871e-15
-2.906605851e-15
-2.788334429e-15
-3.337689906e-15
-2.894625789e-15
-3.048840849e-15
-3.459718858e-15
-3.401312312e-15
-3.129481458e-15
-3.412559336e-15
-3.729644916e-15
-3.50715141e-15
-3.092625729e-15
-3.50260575e-15
-3.38450522e-15
-3.147257282e-15
-3.226530499e-15
-3.042898368e-15
-3.441722073e-15
-3.18705192e-15
-3.063674213e-15
-3.180189188e-15
-2.899380969e-15
-2.739527613e-15
-3.538582912e-15
-3.744999784e-15
-3.292143955e-15
-3.205525943e-15
-3.637485582e-15
-3.416180096e-15
-3.034871801e-15
-3.717888616e-15
-3.631564411e-15
-3.547802124e-15
-3.431647264e-15
-3.518904594e-15
-3.862631823e-15
-3.752599684e-15
-3.676953737e-15
-4.239469139e-15
-3.945772858e-15
-3.434224664e-15
-3.263312911e-15
-3.284882181e-15
-3.499676456e-15
-3.463529916e-15
-3.292889243e-15
-3.776531183e-15
-3.987137841e-15
-3.936036986e-15
-4.122094658e-15
-3.375487142e-15
-3.570833949e-15
-3.270639514e-15
-3.160942316e-15
-3.51782182e-15
-3.595989895e-15
-3.835799977e-15
-3.370764198e-15
-3.922555925e-15
-4.056058114e-15
-3.299918289e-15
-3.233519838e-15
-3.061188708e-15
-3.751799999e-15
-3.487458065e-15
-3.615399045e-15
-3.739256948e-15
-3.890196638e-15
-3.137655084e-15
-3.047028156e-15
-3.568223177e-15
-3.414468651e-15
-3.66529071e-15
-3.722060988e-15
-3.559113515e-15
-4.050651888e-15
-3.73207023e-15
-3.289570346e-15
-3.3723699e-15
-3.653071522e-15
-3.243889395e-15
-2.967533657e-15
-3.005107513e-15
-3.536330104e-15
-3.281740731e-15
-3.364518191e-15
-3.385792155e-15
-3.497085423e-15
-3.682103515e-15
-3.544282011e-15
-3.301407417e-15
-3.08806951e-15
-3.416108617e-15
-2.967974137e-15
-2.726507209e-15
-2.692366846e-15
-2.300049416e-15
-2.75620434e-15
-2.882500084e-15
-3.059225033e-15
-3.050709553e-15
-3.116864645e-15
-3.150973874e-15
-3.135988901e-15
-3.193053812e-15
-3.538118581e-15
-3.033357601e-15
-2.780609677e-15
-3.033337742e-15
-2.67325146e-15
-2.739082358e-15
-2.543247968e-15
-2.962691189e-15
-2.608282124e-15
-2.775435781e-15
-2.571478393e-15
-2.615557244e-15
-2.918101465e-15
-2.684801984e-15
-2.728797055e-15
-2.647852043e-15
-2.559136593e-15
-2.922224461e-15
-2.562983534e-15
-2.929189504e-15
-2.553095833e-15
-1.921058965e-15
-2.835997746e-15
-2.663048131e-15
-2.323463568e-15
-2.242973984e-15
-3.148550326e-15
-2.202790214e-15
-2.384576484e-15
-2.735711176e-15
-1.905721303e-15
-2.505426603e-15
-2.514948834e-15
-2.990390007e-15
-3.356760762e-15
-2.881747624e-15
-3.260220531e-15
-2.843496842e-15
-3.079799103e-15
-2.955702836e-15
-3.456924665e-15
-2.990720575e-15
-3.036260451e-15
-3.451428652e-15
-3.64810731e-15
-3.812343627e-15
-3.033002868e-15
-2.956417569e-15
-3.219301587e-15
-3.308457636e-15
-3.013761493e-15
-3.066669826e-15
-3.161396635e-15
-2.800980813e-15
-3.675057372e-15
-3.578836987e-15
-3.230683411e-15
-3.158207997e-15
-3.221395498e-15
-2.992622253e-15
-3.678259368e-15
-3.882157225e-15
-3.881559076e-15
-3.474825328e-15
-3.381140144e-15
-3.274361732e-15
-3.777933327e-15
-3.194629713e-15
-3.487767907e-15
-3.914197942e-15
-3.698824472e-15
-3.846544047e-15
-3.497353268e-15
-3.618769824e-15
-3.824194486e-15
-3.843320998e-15
-3.720838042e-15
-3.881522095e-15
-4.174352723e-15
-3.799396411e-15
-3.836749948e-15
-3.292086153e-15
-3.525694404e-15
-3.549983134e-15
-3.225300379e-15
-3.668581953e-15
-3.581780659e-15
-3.723098483e-15
-3.834946878e-15
-4.127933624e-15
-4.322154277e-15
-3.598930544e-15
-3.3541861e-15
-3.471410629e-15
-3.56710957e-15
-3.513102973e-15
-3.638538406e-15
-4.04889482e-15
-4.020861965e-15
-2.731198535e-15
-3.480255108e-15
-3.920870102e-15
-3.653742715e-15
-3.450751811e-15
-3.672565005e-15
-4.01770048e-15
-3.751233949e-15
-3.276081295e-15
-3.664177816e-15
-3.809366756e-15
-4.227706612e-15
-3.173807409e-15
-3.205258044e-15
-3.201492728e-15
-3.647306131e-15
-3.449425516e-15
-3.88290616e-15
-3.561922822e-15
-3.714905803e-15
-3.497678435e-15
-3.524598597e-15
-3.364933729e-15
-3.274103331e-15
-3.689561855e-15
-3.481678673e-15
-3.05961436e-15
-2.856215854e-15
-3.051409304e-15
-3.051390246e-15
-3.248825483e-15
-3.680476803e-15
-3.490935009e-15
-3.614083307e-15
-3.368849502e-15
-3.590646605e-15
-2.818348089e-15
-3.060491401e-15
-3.376984993e-15
-2.151853217e-15
-2.780522358e-15
-2.690978749e-15
-2.574412765e-15
-2.997661797e-15
-2.734793375e-15
-3.159506403e-15
-3.340891633e-15
-3.018976984e-15
-3.137681933e-15
-3.21296159e-15
-2.848628565e-15
-3.134064861e-15
-2.891381729e-15
-2.706857049e-15
-2.793661033e-15
-3.076758771e-15
-3.197716193e-15
-2.555071315e-15
-2.812717287e-15
-2.993338115e-15
-2.475376394e-15
-2.739257411e-15
-2.512325582e-15
-2.608158441e-15
-2.684122129e-15
-2.748411298e-15
-2.744793746e-15
-2.76186081e-15
-2.847751371e-15
-2.384775807e-15
-2.320070472e-15
-2.445389959e-15
-2.577556684e-15
-3.118548163e-15
-2.100763426e-15
-2.124074339e-15
-2.766953877e-15
-2.12000306e-15
-2.045856303e-15
-1.806392068e-15
-2.249453279e-15
-1.85484801e-15
-2.990184024e-15
-2.035881633e-15
-2.554238891e-15
-2.509787634e-15
-2.377240225e-15
-2.656847577e-15
-2.939926414e-15
-2.989071924e-15
-3.409918628e-15
-2.931154554e-15
-3.030935529e-15
-2.986603383e-15
-2.95625311e-15
-2.916956449e-15
-2.841912789e-15
-3.137462843e-15
-3.322029021e-15
-3.270943926e-15
-3.023077309e-15
-2.866120939e-15
-3.507348803e-15
-3.659017359e-15
-3.880545345e-15
-3.325766414e-15
-3.226714501e-15
-2.743004492e-15
-3.29581078e-15
-3.166627717e-15
-3.657574723e-15
-3.079714571e-15
-3.316580244e-15
-2.986814572e-15
-2.962688889e-15
-3.747091878e-15
-3.348938897e-15
-3.431264394e-15
-2.971389128e-15
-3.601977594e-15
-3.070769161e-15
-3.223637663e-15
-2.788140629e-15
-4.067985495e-15
-3.753904919e-15
-3.576220273e-15
-3.55893206e-15
-3.52844659e-15
-3.745994697e-15
-3.396449258e-15
-3.583112473e-15
-3.508254304e-15
-4.291328543e-15
-3.710359067e-15
-3.819680324e-15
-3.463744759e-15
-3.543644986e-15
-3.906410784e-15
-3.936771472e-15
-3.734232921e-15
-3.859856754e-15
-4.047967123e-15
-4.416487472e-15
-4.061661979e-15
-3.96157228e-15
-3.861280926e-15
-3.702740987e-15
-3.758333199e-15
-3.316892042e-15
-3.587706889e-15
-3.672988749e-15
-3.832600504e-15
-3.85823094e-15
-3.605793691e-15
-4.015449511e-15
-4.033229598e-15
-3.87908939e-15
-3.505639664e-15
-3.701591784e-15
-3.82396918e-15
-3.217523679e-15
-3.523461781e-15
-3.797441644e-15
-4.077534039e-15
-4.179076607e-15
-2.937823307e-15
-3.506993944e-15
-3.849304488e-15
-3.702455982e-15
-3.653258951e-15
-3.686628633e-15
-3.829169113e-15
-3.861573331e-15
-3.396415338e-15
-3.539643099e-15
-3.620262331e-15
-3.702396973e-15
-3.753238071e-15
-3.165413143e-15
-3.056858042e-15
-3.335917364e-15
-3.542052278e-15
-3.604093771e-15
-3.525358129e-15
-3.647879205e-15
-3.607390812e-15
-3.701570115e-15
-3.290944709e-15
-3.589654199e-15
-3.010024705e-15
-3.06520875e-15
-3.376846414e-15
-2.930270617e-15
-3.295564767e-15
-2.666913438e-15
-2.979208345e-15
-3.481375982e-15
-3.265660764e-15
-3.313397651e-15
-3.393878072e-15
-3.883876351e-15
-3.262734389e-15
-3.417705365e-15
-2.807216205e-15
-3.039024707e-15
-2.994409906e-15
-3.413511737e-15
-2.918566544e-15
-2.960939652e-15
-2.815778828e-15
-3.325583939e-15
-3.421461092e-15
-3.361438588e-15
-2.723188613e-15
-3.070608988e-15
-3.216745372e-15
-2.719759347e-15
-3.126460287e-15
-2.795122078e-15
-2.719426965e-15
-3.090802255e-15
-2.82822368e-15
-2.615816273e-15
-2.648540832e-15
-2.862891708e-15
-2.918257871e-15
-2.746354367e-15
-2.907472489e-15
-3.160662873e-15
-2.589653706e-15
-2.483779239e-15
-2.642532538e-15
-2.781669247e-15
-2.604873992e-15
-2.506654896e-15
-2.619647334e-15
-2.675023003e-15
-3.052369891e-15
-2.667462772e-15
-2.558300823e-15
-1.911284105e-15
-2.874315041e-15
-2.08339428e-15
-2.393032239e-15
-2.809533647e-15
-2.473011914e-15
-2.389370847e-15
-2.275908622e-15
-1.934101517e-15
-2.165861567e-15
-1.934076002e-15
-2.437284369e-15
-2.984985258e-15
-2.064459712e-15
-1.878029077e-15
-2.347018792e-15
-2.513640016e-15
-1.921942248e-15
-2.337693064e-15
-2.121140166e-15
-2.857952284e-15
-2.937322768e-15
-2.880567574e-15
-3.00542765e-15
-3.183036344e-15
-3.055564145e-15
-3.043155683e-15
-3.037653735e-15
-2.872444593e-15
-2.813975965e-15
-2.824931708e-15
-2.592244532e-15
-2.866434115e-15
-2.830255753e-15
-3.518235031e-15
-3.659109172e-15
-3.170953088e-15
-2.595077172e-15
-2.786886221e-15
-3.445186266e-15
-3.207164924e-15
-3.778767643e-15
-3.041978364e-15
-3.152285712e-15
-3.032111943e-15
-2.864409608e-15
-3.019762841e-15
-2.79583865e-15
-3.523792213e-15
-3.493406556e-15
-3.182524061e-15
-3.096774288e-15
-3.273550628e-15
-2.929349606e-15
-3.543968852e-15
-3.793797649e-15
-3.45827157e-15
-3.615446868e-15
-3.42668643e-15
-3.509439398e-15
-3.089573394e-15
-3.009697993e-15
-2.948831219e-15
-3.99608641e-15
-3.908851461e-15
-3.917582096e-15
-4.132676271e-15
-3.510434759e-15
-3.620400731e-15
-4.03278219e-15
-3.417759346e-15
-3.593519472e-15
-3.430730325e-15
-4.249367072e-15
-4.034383444e-15
-3.826045896e-15
-3.87602925e-15
-3.622304595e-15
-3.942757251e-15
-3.803446428e-15
-3.756404365e-15
-3.938818553e-15
-3.418047421e-15
-3.975234447e-15
-4.263845652e-15
-3.99707327e-15
-3.725239182e-15
-3.69104599e-15
-3.982543842e-15
-3.555121632e-15
-3.777193231e-15
-3.639527149e-15
-3.660734969e-15
-3.951558831e-15
-3.878814693e-15
-3.92411643e-15
-3.513016243e-15
-3.644214502e-15
-4.044284693e-15
-3.755339846e-15
-4.024148207e-15
-3.473985302e-15
-3.815877028e-15
-3.248680118e-15
-3.791315331e-15
-3.525933728e-15
-3.73617421e-15
-4.466661895e-15
-4.118053849e-15
-3.056965761e-15
-3.220293301e-15
-3.832599801e-15
-3.694628394e-15
-3.757368226e-15
-3.754401094e-15
-3.714114364e-15
-3.68986919e-15
-3.161704542e-15
-3.320286468e-15
-3.479506185e-15
-3.769412164e-15
-3.382201898e-15
-3.730228796e-15
-2.900613066e-15
-3.261823656e-15
-3.316772789e-15
-3.40628654e-15
-3.575409899e-15
-3.608162768e-15
-3.376108835e-15
-3.484663568e-15
-3.612192587e-15
-3.235000127e-15
-3.54606947e-15
-3.389078561e-15
-2.609343332e-15
-3.106877255e-15
-3.570637914e-15
-2.751817991e-15
-2.940475578e-15
-3.049144968e-15
-3.252215066e-15
-3.330292422e-15
-3.438193889e-15
-3.388383008e-15
-3.215229698e-15
-3.450541103e-15
-3.399930717e-15
-3.132292189e-15
-3.304379293e-15
-2.851391716e-15
-3.093982716e-15
-2.993407476e-15
-3.032146888e-15
-2.522528262e-15
-2.855932303e-15
-2.525896091e-15
-3.029053226e-15
-3.181034596e-15
-3.398228352e-15
-3.099502741e-15
-2.995670565e-15
-2.896814048e-15
-3.245690841e-15
-3.369610949e-15
-2.985211184e-15
-2.606295851e-15
-2.866307348e-15
-2.826071303e-15
-2.968931482e-15
-2.931008335e-15
-2.567113402e-15
-2.335695736e-15
-3.153994289e-15
-2.606674231e-15
-3.00232078e-15
-2.828869605e-15
-2.677311417e-15
-2.537883111e-15
-2.322652085e-15
-2.357342015e-15
-2.775795542e-15
-2.161775569e-15
-2.122751887e-15
-2.76890637e-15
-2.947161964e-15
-2.721684308e-15
-2.834269584e-15
-2.558133616e-15
-1.69761916e-15
-2.134637832e-15
-2.97618633e-15
-2.504754806e-15
-2.238320931e-15
-2.505916884e-15
-2.804469025e-15
-2.654538982e-15
-2.380727805e-15
-1.881487065e-15
-1.656436114e-15
-2.261288829e-15
-2.578532785e-15
-2.137133152e-15
-2.55082629e-15
-2.542951941e-15
-2.486687544e-15
-2.359710816e-15
-2.543114487e-15
-2.545742228e-15
-2.364882729e-15
-2.481145009e-15
-2.316625234e-15
-2.493155625e-15
-2.925810123e-15
-2.859242344e-15
-2.884921053e-15
-2.75728585e-15
-3.099226419e-15
-2.363010482e-15
-3.014563496e-15
-3.053899584e-15
-2.815382022e-15
-2.806367909e-15
-2.705929254e-15
-2.827776035e-15
-2.708909094e-15
-2.72595186e-15
-2.656739406e-15
-2.68067481e-15
-2.963833359e-15
-3.014948522e-15
-3.481793109e-15
-3.086198803e-15
-2.848683854e-15
-2.520689332e-15
-2.737497505e-15
-3.057212916e-15
-2.852330068e-15
-3.225205417e-15
-3.181788593e-15
-3.006486653e-15
-3.296823729e-15
-2.998248117e-15
-3.170705766e-15
-3.590053128e-15
-3.369684185e-15
-3.214715292e-15
-3.222916713e-15
-3.236423756e-15
-3.209986786e-15
-3.384247352e-15
-2.855213181e-15
-2.516911762e-15
-2.805909308e-15
-3.485808338e-15
-3.525570478e-15
-3.466690489e-15
-3.666018105e-15
-3.685207342e-15
-3.353258454e-15
-2.892728793e-15
-3.358788325e-15
-2.783142527e-15
-3.852327531e-15
-3.812870334e-15
-3.966666587e-15
-4.092319964e-15
-3.883643532e-15
-3.782146551e-15
-3.741138183e-15
-3.71035548e-15
-3.810544088e-15
-3.44146445e-15
-3.788799526e-15
-3.937848636e-15
-4.142355371e-15
-3.937620795e-15
-3.85749619e-15
-4.066624732e-15
-3.725839861e-15
-3.762558355e-15
-3.993331988e-15
-3.89606479e-15
-4.061181618e-15
-3.997020833e-15
-3.899283627e-15
-3.83289055e-15
-3.729362607e-15
-3.911227223e-15
-3.890438503e-15
-3.951130621e-15
-3.704745332e-15
-3.761840463e-15
-3.700400337e-15
-3.858511711e-15
-4.025730136e-15
-3.976340471e-15
-3.760377208e-15
-4.093204718e-15
-3.447497619e-15
-3.567547882e-15
-3.633194295e-15
-4.225767784e-15
-3.971726981e-15
-4.267035637e-15
-3.997338261e-15
-3.596711056e-15
-3.318016465e-15
-3.494698503e-15
-3.443710758e-15
-4.142066455e-15
-4.142953393e-15
-3.963612054e-15
-3.278786554e-15
-3.287961249e-15
-3.728872199e-15
-4.073028586e-15
-3.610592521e-15
-3.908510348e-15
-3.6045481e-15
-3.676610826e-15
-3.177080216e-15
-3.207568444e-15
-3.266958457e-15
-3.874829915e-15
-3.421069359e-15
-3.358714058e-15
-4.166728773e-15
-2.690707903e-15
-2.924852707e-15
-3.508888765e-15
-3.271090586e-15
-3.428561598e-15
-3.638477177e-15
-3.670063275e-15
-3.467194109e-15
-3.425945989e-15
-3.311454167e-15
-3.101018529e-15
-3.211762679e-15
-3.071108686e-15
-2.845111971e-15
-3.01568742e-15
-3.606836477e-15
-2.275197229e-15
-3.080861835e-15
-2.854781778e-15
-3.075923997e-15
-3.509336425e-15
-3.540974055e-15
-3.418588881e-15
-3.3667926e-15
-3.367353135e-15
-3.240380331e-15
-3.419279693e-15
-3.379466577e-15
-2.594085394e-15
-2.668720922e-15
-2.429637611e-15
-3.067759391e-15
-3.03841884e-15
-2.373562302e-15
-2.843115627e-15
-2.685589892e-15
-2.894594927e-15
-2.853726101e-15
-3.425882529e-15
-3.726401591e-15
-3.029128787e-15
-3.001933845e-15
-2.934156337e-15
-3.014226573e-15
-2.7910838e-15
-2.461297121e-15
-2.972699652e-15
-2.846996883e-15
-3.134874166e-15
-2.843368423e-15
-2.598690862e-15
-2.184784323e-15
-2.872366105e-15
-2.760211425e-15
-2.951908763e-15
-2.74250026e-15
-3.091905373e-15
-2.684151062e-15
-2.52050887e-15
-2.251911316e-15
-2.178425076e-15
-2.429832542e-15
-2.115057953e-15
-2.465804202e-15
-2.561286791e-15
-2.147259104e-15
-2.569638417e-15
-2.587682648e-15
-2.611977061e-15
-2.597346134e-15
-1.616559166e-15
-2.153234513e-15
-1.941856864e-15
-3.059192249e-15
-2.035029491e-15
-2.291412216e-15
-2.94340292e-15
-2.451463477e-15
-2.554535549e-15
-1.806259813e-15
-1.32198119e-15
-2.590876196e-15
-2.2295499e-15
-2.775348646e-15
-2.460981338e-15
-2.041952105e-15
-2.796775574e-15
-2.188047981e-15
-2.563438046e-15
-2.014140564e-15
-2.834772798e-15
-1.780891024e-15
-2.300174438e-15
-2.405955694e-15
-2.365493603e-15
-2.543371575e-15
-2.582538313e-15
-2.445338689e-15
-2.808259713e-15
-3.065242068e-15
-2.294867117e-15
-3.148922672e-15
-2.90443973e-15
-2.891665204e-15
-2.784597208e-15
-2.061717453e-15
-2.5380511e-15
-2.994427764e-15
-2.921001713e-15
-2.861428685e-15
-3.058243059e-15
-2.495795098e-15
-2.250281075e-15
-2.519581025e-15
-2.97481894e-15
-2.593660976e-15
-2.523413978e-15
-2.676258094e-15
-2.41352228e-15
-2.852393976e-15
-2.852937764e-15
-3.225372843e-15
-2.570042426e-15
-2.779500933e-15
-2.552892712e-15
-3.108517674e-15
-2.94705168e-15
-2.420803994e-15
-3.277629817e-15
-2.8150148e-15
-3.230181379e-15
-2.675083865e-15
-3.195509526e-15
-2.875754631e-15
-3.133219183e-15
-3.450175242e-15
-3.8436623e-15
-3.093417403e-15
-2.793276572e-15
-3.300835954e-15
-2.969464526e-15
-2.792116201e-15
-3.209009024e-15
-2.7956207e-15
-2.652955989e-15
-3.745232979e-15
-3.502025841e-15
-3.477837046e-15
-3.582343906e-15
-3.599281597e-15
-3.812761768e-15
-3.602070118e-15
-2.907239606e-15
-3.401629154e-15
-3.134002061e-15
-2.826931696e-15
-4.00585565e-15
-4.053794496e-15
-3.930791946e-15
-4.131480381e-15
-3.910555075e-15
-3.837146385e-15
-3.768720471e-15
-3.715469658e-15
-3.934268158e-15
-3.802312849e-15
-3.593393154e-15
-3.942272125e-15
-4.11200425e-15
-4.113320776e-15
-4.229218758e-15
-4.030892762e-15
-4.000635143e-15
-4.005334044e-15
-3.655206933e-15
-3.950106698e-15
-3.786642804e-15
-3.991399575e-15
-4.293209802e-15
-4.056427141e-15
-3.969133336e-15
-4.325131641e-15
-4.119521022e-15
-3.731374729e-15
-3.973959168e-15
-4.010723038e-15
-3.881859421e-15
-3.896621452e-15
-3.881255111e-15
-3.972932593e-15
-4.21289752e-15
-4.131820763e-15
-4.225584032e-15
-3.962671769e-15
-3.9423127e-15
-3.875417515e-15
-3.560106209e-15
-3.487280987e-15
-3.800287323e-15
-4.041344288e-15
-3.787115669e-15
-4.18062466e-15
-4.012487301e-15
-4.006996475e-15
-3.699531668e-15
-3.606492836e-15
-3.9015603e-15
-4.033986525e-15
-3.753385531e-15
-4.204470271e-15
-3.371394877e-15
-3.497320507e-15
-3.398002855e-15
-3.568018626e-15
-3.595094248e-15
-4.124310627e-15
-3.790773605e-15
-3.900154304e-15
-3.778492789e-15
-3.224124304e-15
-3.266552595e-15
-3.548687379e-15
-3.371754593e-15
-2.994226467e-15
-3.575998515e-15
-3.998606009e-15
-2.829066193e-15
-2.993339455e-15
-3.542633264e-15
-3.287295349e-15
-3.593180718e-15
-3.653205683e-15
-3.387645735e-15
-3.808085311e-15
-3.627548626e-15
-3.504844203e-15
-2.955561983e-15
-3.250646696e-15
-2.922258804e-15
-2.963818813e-15
-2.710425185e-15
-3.285207713e-15
-3.368501819e-15
-2.992375041e-15
-2.671689869e-15
-2.89595672e-15
-3.084245053e-15
-3.136870493e-15
-3.525162235e-15
-3.468377516e-15
-3.312505003e-15
-3.404577018e-15
-3.578183817e-15
-3.334521318e-15
-3.238584905e-15
-2.877685654e-15
-2.589988806e-15
-2.580328027e-15
-2.599953996e-15
-2.89133838e-15
-2.95181114e-15
-2.305147559e-15
-2.710514736e-15
-2.560036888e-15
-2.790477011e-15
-2.569248431e-15
-3.048719966e-15
-3.414202361e-15
-3.271048612e-15
-2.935041476e-15
-3.312998419e-15
-3.025958052e-15