/*--------------------------------*- C++ -*----------------------------------*\
| =========                 |                                                 |
| \\      /  F ield         | OpenFOAM: The Open Source CFD Toolbox           |
|  \\    /   O peration     | Version:  2212                                  |
|   \\  /    A nd           | Website:  www.openfoam.com                      |
|    \\/     M anipulation  |                                                 |
\*---------------------------------------------------------------------------*/
FoamFile
{
    version     2.0;
    format      ascii;
    arch        "LSB;label=32;scalar=64";
    class       surfaceScalarField;
    location    "1";
    object      phi;
}
// * * * * * * * * * * * * * * * * * * * * * * * * * * * * * * * * * * * * * //

dimensions      [0 3 -1 0 0 0 0];

oriented        oriented;

internalField   nonuniform List<scalar> 
124950
(
0.0025
-4.43842238e-19
-4.025679545e-19
0.0025
-1.472515411e-18
-1.129922454e-18
0.0025
4.053585523e-20
2.653475319e-19
0.0025
3.195429276e-21
-9.43774922e-19
0.0025
-1.723469188e-18
-9.668910573e-19
0.0025
-8.21194885e-19
-1.109718832e-19
0.0025
-5.122991692e-19
-6.34387629e-19
0.0025
-3.179856299e-19
3.459056117e-20
0.0025
-1.29247772e-21
-3.135549822e-19
0.0025
3.734621938e-19
-5.13785921e-19
0.0025
-1.352953741e-18
-5.997220114e-19
0.0025
-1.31257668e-18
-2.980591625e-19
0.0025
-1.125236416e-18
-7.37173179e-19
0.0025
-1.001654957e-18
-3.077363888e-19
0.0025
-5.250453517e-19
-1.820930206e-19
0.0025
-4.689241197e-19
-1.411524126e-18
0.0025
-6.219553395e-19
4.573969011e-19
0.0025
-5.533683926e-20
-3.488303673e-19
0.0025
1.882468435e-19
-3.371386149e-19
0.0025
3.762632658e-19
-4.229843331e-20
0.0025
-8.964879311e-19
-5.509633459e-19
0.0025
-1.269783123e-18
-7.497014727e-19
0.0025
-1.625899931e-18
-8.642422465e-19
0.0025
-1.121916759e-18
-4.77413107e-19
0.0025
-9.305029034e-19
-1.315507834e-19
0.0025
-1.144683044e-18
-9.357765899e-19
0.0025
-6.45314288e-19
3.54356959e-19
0.0025
-5.719302514e-19
-1.256728019e-19
0.0025
-2.706404226e-19
-5.39079572e-19
0.0025
3.095021458e-19
-4.020538396e-19
0.0025
-2.151847559e-19
5.087133403e-19
0.0025
-5.085140938e-19
-8.514530205e-20
0.0025
-3.069388473e-20
-2.4492112e-19
0.0025
2.790596396e-19
-1.834030178e-20
0.0025
6.355948908e-19
-2.638091248e-19
0.0025
-3.096902743e-19
-5.021266024e-19
0.0025
-1.028154938e-18
-8.296296008e-19
0.0025
-1.230127223e-18
-7.889365596e-19
0.0025
-1.202149559e-18
-6.217871831e-19
0.0025
-9.008800141e-19
-2.453139292e-19
0.0025
-1.20870261e-18
-6.488225004e-19
0.0025
-8.868880878e-19
2.674864549e-19
0.0025
-6.34309977e-19
-1.962069275e-19
0.0025
-1.007953862e-18
-3.161472305e-19
0.0025
-2.416182118e-19
-7.194778866e-19
0.0025
-4.515210506e-19
1.929976552e-19
0.0025
-3.220589079e-19
3.539480913e-19
0.0025
-3.96345239e-19
5.913336304e-20
0.0025
3.605771771e-19
-1.780510188e-19
0.0025
4.159391036e-19
-7.893750389e-20
0.0025
1.964225279e-19
4.302752845e-19
0.0025
-3.140401678e-19
1.042144859e-19
0.0025
-3.806253522e-19
-1.431055552e-19
0.0025
3.585536703e-19
3.276716806e-19
0.0025
2.735829781e-19
-3.455586307e-19
0.0025
8.179342361e-19
3.613957927e-19
0.0025
-5.459769842e-19
-1.200555678e-18
0.0025
-5.903816974e-19
-7.281143515e-19
0.0025
-7.353734002e-19
-8.610247e-19
0.0025
-1.326748328e-18
-8.055901997e-19
0.0025
-1.051296508e-18
-7.04958875e-19
0.0025
-9.427121477e-19
-6.658946932e-19
0.0025
-1.211415772e-18
-3.833998254e-19
0.0025
-9.246049897e-19
-4.33789657e-19
0.0025
-9.73680956e-19
-2.54803172e-19
0.0025
-9.255827487e-19
-4.569903035e-19
0.0025
-8.403598285e-19
1.5039225e-19
0.0025
-4.285509162e-19
3.241474166e-19
0.0025
-6.620832579e-19
-1.090296714e-19
0.0025
-3.714419846e-19
-3.85284659e-19
0.0025
-7.556708727e-20
-3.351066953e-19
0.0025
2.551103477e-19
6.462507119e-19
0.0025
-1.748145596e-19
2.733066433e-19
0.0025
-5.309176075e-19
1.64947667e-19
0.0025
1.201034424e-20
2.103379743e-19
0.0025
4.626209485e-19
-3.019957679e-19
0.0025
3.244948466e-19
-3.484772963e-20
0.0025
-2.848875976e-19
2.505395341e-19
0.0025
-3.022737768e-20
2.856604349e-20
0.0025
-2.811555019e-19
1.154209817e-19
0.0025
9.448505963e-20
-3.699734006e-19
0.0025
-3.172441614e-19
1.205016667e-19
0.0025
6.863433559e-19
9.600185908e-20
0.0025
2.073524231e-19
-4.613387182e-19
0.0025
-1.197328439e-18
-2.237902189e-18
0.0025
-9.076772901e-19
-8.184282558e-19
0.0025
-4.128865076e-19
-1.023619626e-18
0.0025
-1.15435762e-18
-8.085227391e-19
0.0025
-8.630195357e-19
-7.581002922e-19
0.0025
-2.060851556e-19
-3.81168675e-19
0.0025
-1.224661099e-18
-5.359007205e-19
0.0025
-1.041901093e-18
-6.697069604e-19
0.0025
-8.873479558e-19
-4.269395406e-19
0.0025
-8.355556322e-19
-1.561232191e-19
0.0025
-1.140630638e-18
-1.616371107e-19
0.0025
-6.607144111e-19
1.325151571e-19
0.0025
-9.748470437e-19
-3.824318575e-19
0.0025
-4.609050836e-19
-2.652824579e-19
0.0025
-6.601172992e-19
-2.233765654e-19
0.0025
-3.081241783e-19
6.010226866e-19
0.0025
-5.765804703e-19
7.664865902e-20
0.0025
-6.09631242e-19
1.605728095e-19
0.0025
-8.004337267e-20
5.668183786e-20
0.0025
-1.167137905e-19
-4.988769589e-19
0.0025
-1.604271708e-19
-4.727670836e-19
0.0025
-2.879567875e-19
3.0780443e-19
0.0025
1.934855935e-19
2.661248335e-19
0.0025
-5.651383653e-19
1.578617011e-19
0.0025
-2.912520386e-19
-2.266929918e-19
0.0025
-3.490433173e-19
-3.508944573e-19
0.0025
3.374200309e-19
-1.876517892e-19
0.0025
-1.82823564e-19
-7.209781802e-19
0.0025
-1.53116369e-19
4.378750159e-19
0.0025
-1.355788897e-19
-9.394102276e-20
0.0025
1.619140667e-19
2.904731904e-19
0.0025
-3.17229464e-19
-5.936022663e-19
0.0025
-4.388929986e-19
-4.291291356e-20
0.0025
-1.740661264e-19
-3.731733506e-19
0.0025
8.620490181e-20
-1.581170873e-19
0.0025
5.611242657e-19
-5.893738111e-20
0.0025
-1.481813528e-18
-2.090030864e-18
0.0025
-1.842387405e-18
-1.731144005e-18
0.0025
-6.564046797e-19
-1.47674999e-18
0.0025
-1.166788317e-18
-8.869992983e-19
0.0025
-8.244517736e-19
-8.545062066e-19
0.0025
-1.35455413e-19
-5.622814455e-19
0.0025
-8.999167907e-19
-5.344848803e-19
0.0025
-8.814460937e-19
-7.903207007e-19
0.0025
-5.450863692e-19
-5.692614451e-19
0.0025
-6.507392398e-19
-2.403447954e-19
0.0025
-8.583866796e-19
-4.965500693e-19
0.0025
-9.558103131e-19
-1.240086211e-19
0.0025
-8.394649106e-19
-4.826424334e-19
0.0025
-5.668024851e-19
-3.860272278e-19
0.0025
-8.936817442e-19
-3.747191812e-20
0.0025
-8.775453319e-19
2.931659569e-19
0.0025
-5.871913411e-19
4.850805749e-20
0.0025
-5.380499246e-19
4.194556456e-19
0.0025
-2.087869911e-19
-2.307056641e-19
0.0025
-6.86052557e-19
-7.250334671e-19
0.0025
-1.139492634e-18
-8.454778431e-19
0.0025
-3.809652047e-19
3.451186255e-19
0.0025
-3.025097485e-19
2.7968248e-19
0.0025
-7.044023862e-19
1.718498065e-19
0.0025
-5.565067826e-19
-3.877634611e-20
0.0025
-2.499476505e-19
-4.259653234e-19
0.0025
-4.481451124e-20
-5.314009505e-19
0.0025
-4.912335184e-19
-1.04215616e-18
0.0025
-2.604331871e-19
5.854236258e-19
0.0025
-2.537386985e-19
-3.624545629e-19
0.0025
-1.798379041e-20
3.749829488e-19
0.0025
-3.771583733e-19
1.008632507e-19
0.0025
-2.120097325e-19
-1.950594654e-19
0.0025
-1.020603755e-19
-3.212228306e-19
0.0025
1.849069592e-19
-9.703169249e-20
0.0025
5.156025727e-19
-7.246613401e-19
0.0025
2.40481477e-19
7.835139122e-19
0.0025
2.246472493e-19
-2.23298854e-19
0.0025
-2.312039169e-19
-2.707070421e-19
0.0025
-4.882348609e-19
-1.972847278e-19
0.0025
3.31356639e-20
-1.723586501e-19
0.0025
-5.578561371e-19
-1.8560087e-19
0.0025
-1.523937208e-19
-5.857468694e-19
0.0025
2.01343099e-19
1.565183934e-19
0.0025
4.861489088e-19
-1.891263757e-19
0.0025
-1.31969879e-18
-1.66727865e-18
0.0025
-1.762619592e-18
-2.021429974e-18
0.0025
-1.139054927e-18
-1.789869666e-18
0.0025
-1.901434599e-18
-1.520172098e-18
0.0025
-1.182990489e-18
-1.588534526e-18
0.0025
-9.893181393e-19
-1.536680566e-18
0.0025
-1.043387214e-18
-5.992528134e-19
0.0025
-8.457993569e-19
-7.338879787e-19
0.0025
-4.481286273e-19
-5.114920948e-19
0.0025
-4.342934937e-19
-6.848614611e-19
0.0025
-8.404644598e-19
-4.037496941e-19
0.0025
-6.431983427e-19
-4.381045791e-19
0.0025
-6.067299863e-19
-5.106464633e-19
0.0025
-5.279472059e-19
-1.727752128e-19
0.0025
-4.998132892e-19
-1.956815629e-19
0.0025
-6.761894068e-19
-1.646412834e-19
0.0025
-4.190221678e-19
1.126045812e-19
0.0025
-6.638429718e-19
1.686932884e-19
0.0025
-3.344957683e-19
-2.345228794e-19
0.0025
-4.805336524e-19
-7.749438837e-20
0.0025
-1.104125938e-18
-7.663680998e-19
0.0025
-6.913376738e-19
5.361823307e-19
0.0025
-3.374265699e-19
3.312419334e-19
0.0025
-4.963907036e-19
2.125716158e-19
0.0025
-5.779411006e-19
7.776912322e-20
0.0025
-2.647476935e-19
-2.821891463e-19
0.0025
-3.082831145e-19
-6.081007985e-19
0.0025
-9.321337999e-19
-1.12195364e-18
0.0025
-2.111603716e-19
4.696214885e-19
0.0025
-4.86945563e-19
1.360085437e-19
0.0025
-1.529674654e-19
1.943480056e-19
0.0025
-7.292667288e-19
2.69212721e-19
0.0025
-2.246078131e-19
-3.621852338e-19
0.0025
-1.515463142e-19
-4.945887114e-19
0.0025
-1.388675961e-19
-5.250192624e-19
0.0025
1.405543734e-19
-1.005753224e-18
0.0025
8.751737515e-20
5.030840757e-19
0.0025
-4.401668373e-19
-2.687094257e-19
0.0025
-1.970590342e-19
-2.479376672e-19
0.0025
-6.59814735e-19
3.503417366e-20
0.0025
-5.04316373e-19
-4.624453056e-19
0.0025
-2.939371814e-19
-1.827852662e-19
0.0025
-1.817110127e-19
-7.25375143e-19
0.0025
9.2345145e-20
-6.714485557e-19
0.0025
3.308930631e-19
-1.04579282e-19
0.0025
-5.401543455e-19
3.104106038e-19
0.0025
6.623712827e-20
8.069420313e-20
0.0025
4.146612925e-20
-3.976299242e-19
0.0025
-3.634181565e-19
-3.423899619e-19
0.0025
-3.617483418e-19
-8.218928076e-20
0.0025
-9.058279814e-20
-1.330961555e-19
0.0025
-2.391357776e-19
-2.055794178e-19
0.0025
1.082535967e-20
-4.664746546e-19
0.0025
-5.455201227e-19
-2.523248321e-19
0.0025
7.056210641e-19
-9.394444256e-20
0.0025
-1.146036111e-18
-1.152983361e-18
0.0025
-1.644383009e-18
-1.87675737e-18
0.0025
-1.267592422e-18
-1.699173551e-18
0.0025
-1.956075971e-18
-1.978465229e-18
0.0025
-1.35755276e-18
-1.808681331e-18
0.0025
-1.566150666e-18
-2.010741497e-18
0.0025
-1.545782529e-18
-9.162133591e-19
0.0025
-1.43398999e-18
-1.398517223e-18
0.0025
-1.228258042e-18
-1.315364191e-18
0.0025
-5.426679258e-19
-1.488295551e-18
0.0025
-1.042290173e-18
-2.406399163e-19
0.0025
-5.235982586e-19
-6.210490247e-19
0.0025
-7.601241388e-19
-6.135518094e-19
0.0025
-5.07961856e-19
-2.808021331e-19
0.0025
3.496828468e-20
-5.173379705e-19
0.0025
-6.726788172e-19
-8.216736675e-20
0.0025
-3.630836773e-19
-2.034373524e-19
0.0025
-5.998818676e-19
-1.824676921e-19
0.0025
-5.013262318e-19
-3.396767717e-19
0.0025
-4.245954167e-19
-1.175820942e-19
0.0025
-4.732609523e-19
-3.543157638e-19
0.0025
-5.970806452e-19
-1.793688385e-21
0.0025
-4.52208164e-19
3.383794516e-19
0.0025
-4.757780501e-19
2.635883215e-19
0.0025
-2.487784147e-19
1.611479228e-19
0.0025
-2.435955118e-19
5.65481188e-20
0.0025
-5.716149124e-19
-4.344072756e-19
0.0025
-5.679995526e-19
-7.732484074e-19
0.0025
-6.459359828e-19
8.386737235e-19
0.0025
-5.287420209e-19
3.12093882e-19
0.0025
-3.111101531e-19
3.619023372e-19
0.0025
-5.899279485e-19
1.441999814e-19
0.0025
-2.760915976e-19
-3.261045945e-19
0.0025
4.903580446e-20
-6.51663405e-19
0.0025
-4.832849088e-19
-6.330304873e-19
0.0025
-4.704743623e-19
-1.444975607e-18
0.0025
-1.537085271e-21
3.540354026e-19
0.0025
-3.663328576e-19
4.170751961e-19
0.0025
-1.606146713e-19
2.253935977e-19
0.0025
-1.583803898e-19
3.437630587e-19
0.0025
-6.94291783e-19
-5.608049556e-19
0.0025
-3.632413969e-19
-4.771365881e-19
0.0025
-2.563710416e-19
-7.220623056e-19
0.0025
2.110447236e-20
-7.326559848e-19
0.0025
5.601121928e-20
-6.317630473e-19
0.0025
-2.666267095e-19
1.074760114e-19
0.0025
3.203507758e-20
-1.802687553e-19
0.0025
-4.98346225e-19
-1.112547703e-19
0.0025
-4.776052865e-19
-1.249574315e-19
0.0025
-3.62590932e-19
-1.793595286e-19
0.0025
-4.008429575e-19
-3.420246167e-19
0.0025
-2.566190684e-19
-4.778495205e-19
0.0025
-1.605269392e-19
-4.209029369e-19
0.0025
1.013183334e-19
-6.980486624e-19
0.0025
1.287746894e-19
-4.361240411e-19
0.0025
-1.218787949e-19
7.676235007e-19
0.0025
-7.913499038e-20
-6.615379847e-19
0.0025
-6.514426439e-19
2.993918797e-20
0.0025
5.920467368e-19
-3.296378432e-19
0.0025
-6.056075221e-19
-8.808058099e-20
0.0025
-3.807511552e-19
2.135124458e-19
0.0025
4.912009616e-19
-5.294432685e-19
0.0025
-6.398570604e-19
-6.841067424e-19
0.0025
-2.241793024e-19
2.922134576e-19
0.0025
-5.01419841e-20
-5.108118852e-19
0.0025
2.131166976e-19
-1.334497345e-19
0.0025
-1.01616564e-18
-6.956194323e-19
0.0025
-1.337985115e-18
-1.381210126e-18
0.0025
-1.113054637e-18
-1.179952639e-18
0.0025
-1.51780212e-18
-1.608305791e-18
0.0025
-1.464235003e-18
-1.72391347e-18
0.0025
-1.399798011e-18
-1.723915194e-18
0.0025
-1.712227938e-18
-1.293060965e-18
0.0025
-1.495893348e-18
-1.634033104e-18
0.0025
-1.532470715e-18
-1.701390274e-18
0.0025
-6.611492858e-19
-1.621057767e-18
0.0025
-1.366375755e-18
-6.743070663e-19
0.0025
-1.100534685e-18
-1.022487155e-18
0.0025
-1.110877479e-18
-9.49681817e-19
0.0025
-9.576431874e-19
-1.446427346e-18
0.0025
-6.746128533e-19
-1.043183509e-18
0.0025
-1.078291479e-18
-2.232234049e-22
0.0025
-4.679014398e-19
-2.95695241e-19
0.0025
-5.817337633e-19
-3.855304293e-19
0.0025
-7.425810832e-19
-6.434732891e-19
0.0025
-5.679416774e-19
-6.866433691e-19
0.0025
-1.196442056e-19
-5.325226735e-19
0.0025
-4.101353012e-19
1.160120646e-19
0.0025
-7.804543612e-19
-1.521072107e-19
0.0025
-3.406142511e-19
4.791430808e-21
0.0025
-2.46624605e-19
5.103613962e-20
0.0025
-1.513181407e-19
-9.770230965e-20
0.0025
-5.572014682e-19
-4.332899177e-19
0.0025
-4.139825434e-19
-6.692800564e-19
0.0025
-1.02151744e-18
-3.374584333e-19
0.0025
-8.316358021e-19
3.121900021e-19
0.0025
-5.291507439e-19
3.700879148e-19
0.0025
-4.614469594e-19
2.101334819e-20
0.0025
-3.25917746e-19
5.844529693e-20
0.0025
-1.647168167e-19
-3.909417525e-19
0.0025
-2.288911369e-19
-8.024685486e-19
0.0025
-9.11634263e-19
-1.546374357e-18
0.0025
-1.976394572e-19
6.10546218e-19
0.0025
-7.417739746e-19
4.936343283e-19
0.0025
-2.158083475e-19
4.256878529e-19
0.0025
-1.424639753e-19
5.308155949e-19
0.0025
-2.862915306e-19
-1.571254686e-19
0.0025
-2.640496051e-19
-6.532442469e-19
0.0025
-8.371797811e-20
-6.733236906e-19
0.0025
-3.006706354e-19
-8.791007555e-19
0.0025
-3.651663929e-19
-1.161110953e-18
0.0025
1.033852179e-19
2.282875036e-19
0.0025
-1.205155742e-19
6.981414007e-20
0.0025
-6.646088705e-19
8.260502265e-20
0.0025
-5.407940221e-19
-1.679574632e-19
0.0025
-3.963876177e-19
-1.681045007e-19
0.0025
-5.703188237e-19
-5.262137133e-19
0.0025
-3.431488758e-19
-4.944638927e-19
0.0025
-3.740617521e-20
-6.577475345e-19
0.0025
1.454853204e-19
-6.714402939e-19
0.0025
8.623142183e-20
-6.307934135e-19
0.0025
-7.037429292e-19
3.175410663e-19
0.0025
-9.977687262e-20
-1.442566276e-19
0.0025
-2.639483682e-20
-2.123244417e-19
0.0025
-3.521365907e-19
2.998085404e-19
0.0025
-1.981964187e-19
-2.018426625e-19
0.0025
-3.668475804e-19
-2.310251047e-19
0.0025
-3.070328184e-19
-4.031550667e-19
0.0025
-2.487071834e-19
-5.656693951e-19
0.0025
-5.873218277e-20
-2.712600895e-19
0.0025
3.502805871e-19
-1.817511758e-19
0.0025
2.90142854e-19
-4.85694704e-19
0.0025
-2.016137647e-19
5.409648986e-19
0.0025
-1.552023612e-19
-4.280731752e-19
0.0025
-1.320196658e-19
2.644663465e-19
0.0025
-3.43583035e-19
-6.352230454e-19
0.0025
3.058470113e-19
2.638469993e-19
0.0025
-3.544835019e-20
5.692656563e-19
0.0025
-3.824997251e-21
-8.514133353e-19
0.0025
3.88892656e-20
-2.232479071e-19
0.0025
-1.549550204e-19
-1.372451997e-19
0.0025
-4.934801654e-19
-4.307596331e-19
0.0025
-4.517873761e-20
1.947746062e-19
0.0025
4.737304696e-19
-9.974219594e-20
0.0025
-1.620630706e-18
-9.370415659e-19
0.0025
-1.159051783e-18
-9.362170631e-19
0.0025
-9.305356999e-19
-4.322151295e-19
0.0025
-1.120607686e-18
-1.36518572e-18
0.0025
-1.304229884e-18
-1.31614637e-18
0.0025
-1.316263631e-18
-1.168735882e-18
0.0025
-1.252309616e-18
-1.396301394e-18
0.0025
-1.387856166e-18
-1.19827445e-18
0.0025
-1.272332423e-18
-1.507983241e-18
0.0025
-8.621607862e-19
-1.445260823e-18
0.0025
-1.633747796e-18
-1.387020151e-18
0.0025
-1.650971443e-18
-1.26544155e-18
0.0025
-1.31465056e-18
-1.218041449e-18
0.0025
-9.723124086e-19
-1.635837554e-18
0.0025
-9.069051579e-19
-1.130616805e-18
0.0025
-1.231252375e-18
-7.265392194e-19
0.0025
-1.397660499e-18
-6.859547362e-19
0.0025
-8.950845194e-19
-8.157015024e-19
0.0025
-1.09642291e-18
-1.146718797e-18
0.0025
-4.948950618e-19
-7.402984076e-19
0.0025
-4.115408979e-19
-1.141922815e-18
0.0025
-5.122197856e-19
3.927312202e-19
0.0025
-1.20931228e-18
-6.690081862e-19
0.0025
-5.473354378e-19
-2.658319542e-19
0.0025
-4.181357811e-19
-1.80387544e-19
0.0025
-4.313523428e-19
-5.379646516e-19
0.0025
-5.020551225e-19
-7.183117107e-19
0.0025
-1.791564442e-19
-4.475928352e-19
0.0025
-1.678209356e-18
-8.574490429e-19
0.0025
-6.36720064e-19
3.329320183e-19
0.0025
-5.927479649e-19
-2.918286495e-19
0.0025
-5.150306199e-19
3.326120043e-20
0.0025
-3.015298577e-19
-1.357502108e-19
0.0025
-3.380065616e-19
-2.792287407e-19
0.0025
-2.370842944e-19
-7.281958887e-19
0.0025
-5.90351046e-19
-1.106034494e-18
0.0025
-6.488163725e-19
2.494767509e-19
0.0025
-7.469377377e-19
1.648164489e-19
0.0025
-6.251308502e-19
2.487804279e-19
0.0025
-5.692297126e-19
7.326750469e-20
0.0025
-4.248461251e-19
3.176559436e-20
0.0025
-3.852763659e-19
-3.020849005e-19
0.0025
-1.34474799e-19
-6.871449323e-19
0.0025
-2.531349127e-19
-7.869966704e-19
0.0025
-4.266971852e-19
-1.276876995e-18
0.0025
-1.128868487e-19
6.07239366e-19
0.0025
-3.185296959e-19
3.095434581e-19
0.0025
-9.578517089e-19
-7.10783688e-21
0.0025
-7.084287636e-19
-2.107135617e-19
0.0025
-7.413434797e-19
-2.955942633e-19
0.0025
-6.947246195e-19
-8.780122773e-19
0.0025
-4.702511977e-19
-9.330124869e-19
0.0025
-2.913345979e-19
-9.476910654e-19
0.0025
-1.217350777e-19
-4.690317799e-19
0.0025
2.427571347e-19
-6.399517539e-19
0.0025
-6.986056087e-19
-1.901562782e-19
0.0025
-1.268736326e-19
1.32297299e-19
0.0025
-3.947816544e-19
2.481351407e-20
0.0025
-4.758364926e-19
7.142641409e-20
0.0025
-4.896659303e-19
-4.170871459e-19
0.0025
-2.658883907e-19
-4.363484613e-19
0.0025
-6.118351208e-19
-3.419678712e-19
0.0025
-2.833687529e-19
-6.839761059e-19
0.0025
-3.180056042e-20
-5.788582412e-19
0.0025
2.580974004e-19
-3.868181957e-19
0.0025
2.146533745e-19
-5.237214357e-19
0.0025
1.635000169e-19
3.991255504e-19
0.0025
-7.063618056e-19
-1.719269447e-19
0.0025
-3.994381927e-19
1.490123737e-19
0.0025
4.220655824e-19
9.716438464e-20
0.0025
-3.84255246e-19
-1.236137501e-19
0.0025
-9.79639817e-20
-1.506602551e-19
0.0025
-1.811945086e-19
-4.444782369e-19
0.0025
-4.972978795e-19
-3.807344909e-19
0.0025
-1.331082454e-19
-5.323178589e-19
0.0025
-1.568453165e-19
-3.54439518e-19
0.0025
1.9546214e-19
-3.509526637e-19
0.0025
2.936031818e-19
-2.429643053e-19
0.0025
3.827624307e-19
1.082575785e-18
0.0025
-2.785477604e-19
-3.593584702e-19
0.0025
1.392433308e-20
3.364605937e-19
0.0025
1.991521547e-19
1.537474279e-19
0.0025
5.210117804e-19
1.691816707e-19
0.0025
3.330703736e-19
1.857901964e-19
0.0025
-7.316006834e-19
-3.088960884e-19
0.0025
1.784001439e-19
-6.244768068e-19
0.0025
4.13215382e-20
9.368217901e-21
0.0025
-2.895680585e-19
2.343603739e-20
0.0025
1.11770002e-19
-1.060281762e-19
0.0025
-3.39837522e-19
1.815208866e-20
0.0025
6.098916384e-19
1.623425129e-19
0.0025
-3.039478285e-18
-2.153933698e-18
0.0025
-1.516781528e-18
-6.886646845e-19
0.0025
-1.059148314e-18
-5.309703848e-19
0.0025
-5.997718137e-19
-8.070733237e-19
0.0025
-1.059357825e-18
-8.161998897e-19
0.0025
-1.644821923e-18
-8.591412924e-19
0.0025
-9.472706049e-19
-1.28665215e-18
0.0025
-1.156927202e-18
-9.890248414e-19
0.0025
-1.293475615e-18
-1.164693956e-18
0.0025
-8.97359081e-19
-1.291390403e-18
0.0025
-1.420855807e-18
-1.567543868e-18
0.0025
-1.485530068e-18
-1.184901764e-18
0.0025
-1.321384096e-18
-1.12439006e-18
0.0025
-8.297267406e-19
-1.34688282e-18
0.0025
-9.895679495e-19
-1.462781368e-18
0.0025
-1.573911128e-18
-1.338406201e-18
0.0025
-1.547244671e-18
-1.067990529e-18
0.0025
-1.269291243e-18
-1.113153098e-18
0.0025
-1.088191776e-18
-1.007527308e-18
0.0025
-5.278002838e-19
-9.544293378e-19
0.0025
-7.194449388e-19
-1.184870705e-18
0.0025
-9.594491666e-19
-3.052360904e-19
0.0025
-8.67535514e-19
-4.769477581e-19
0.0025
-9.986734679e-19
-6.309618941e-19
0.0025
-7.552651749e-19
-6.72995653e-19
0.0025
-4.975666908e-19
-6.790038503e-19
0.0025
-4.715194684e-19
-8.726687314e-19
0.0025
-2.363127823e-19
-5.116373024e-19
0.0025
-1.166882258e-18
-5.522325423e-19
0.0025
-6.712780687e-19
4.056877225e-19
0.0025
-7.566712458e-19
-5.182074912e-19
0.0025
-3.954230945e-19
-4.871085149e-20
0.0025
-4.728309667e-19
-8.316612943e-19
0.0025
-5.869923792e-19
-5.552883942e-19
0.0025
-4.470284477e-19
-5.325827965e-19
0.0025
-1.760879679e-19
-2.606922932e-19
0.0025
-9.57450937e-19
7.869661111e-19
0.0025
-7.402995207e-19
-4.746698266e-19
0.0025
-8.275296682e-19
-1.078920517e-19
0.0025
-6.342437595e-19
-3.254277062e-19
0.0025
-6.537587464e-19
-9.467660418e-20
0.0025
-3.834817158e-19
-4.190746083e-19
0.0025
-3.272814093e-19
-7.57236491e-19
0.0025
-5.703421252e-19
-8.625498199e-19
0.0025
-3.266439592e-19
-8.651686867e-19
0.0025
-6.745607179e-19
2.247134998e-19
0.0025
-5.11090904e-19
4.241017918e-19
0.0025
-5.457277036e-19
2.083417665e-19
0.0025
-6.508009239e-19
2.107188862e-19
0.0025
-5.442378488e-19
-1.104085599e-19
0.0025
-6.516823296e-19
-5.667085857e-19
0.0025
-4.868762736e-19
-8.189538905e-19
0.0025
-4.942778006e-19
-1.177771137e-18
0.0025
-2.847159851e-19
-6.291165108e-19
0.0025
1.710821702e-19
-8.757109863e-19
0.0025
-3.885509804e-19
4.356022092e-20
0.0025
-3.924967262e-19
5.274169078e-19
0.0025
-5.188399125e-19
5.023779518e-19
0.0025
-5.170439433e-19
-1.148580843e-21
0.0025
-6.62221759e-19
-4.260190114e-19
0.0025
-5.03365018e-19
-7.169572078e-19
0.0025
-4.947681757e-19
-6.598238634e-19
0.0025
-2.075713311e-19
-6.004434988e-19
0.0025
9.171948245e-20
-5.808212466e-19
0.0025
-9.422004906e-20
-5.29460146e-19
0.0025
6.211880487e-20
-4.718052638e-19
0.0025
-2.991857068e-19
1.922888629e-19
0.0025
-7.744974403e-19
-2.220290533e-19
0.0025
-3.881638981e-19
2.146699151e-19
0.0025
2.896129786e-20
8.569339919e-20
0.0025
-4.855462377e-19
-5.807981655e-20
0.0025
-2.951423253e-19
-5.242340257e-19
0.0025
-2.347351233e-19
-2.533296291e-19
0.0025
-5.872978198e-19
-4.815312173e-19
0.0025
-1.16108841e-19
-4.495696559e-19
0.0025
1.142015833e-19
-4.105338878e-19
0.0025
3.285308751e-19
-2.175198214e-19
0.0025
4.881942679e-19
-1.757094184e-19
0.0025
6.3526927e-21
3.150176419e-19
0.0025
-2.376264919e-19
3.829341776e-19
0.0025
-1.575400305e-20
2.304424896e-21
0.0025
-2.102980742e-20
4.204380725e-21
0.0025
4.789884051e-20
-3.140885472e-19
0.0025
-4.055888866e-19
-9.957162151e-20
0.0025
-4.158120759e-19
-2.438278232e-19
0.0025
-2.135411681e-19
-4.391641736e-19
0.0025
-2.009874634e-19
-3.599259461e-19
0.0025
-3.513738866e-19
-3.491622772e-19
0.0025
-5.214092405e-20
-3.646765133e-19
0.0025
2.138755861e-19
1.068520538e-19
0.0025
6.184234425e-19
-3.230412496e-20
0.0025
3.47070645e-19
1.929301843e-19
0.0025
-5.502532248e-19
1.150381314e-19
0.0025
5.663380119e-19
3.420244496e-19
0.0025
-1.632250651e-19
-2.253727403e-19
0.0025
-2.426838044e-19
-4.524777137e-19
0.0025
-4.4807064e-19
-4.788837614e-19
0.0025
-2.77715959e-19
-2.467988412e-19
0.0025
-4.218384984e-19
-1.725490298e-19
0.0025
3.894732519e-19
-6.889018457e-20
0.0025
8.172409571e-20
-6.2591182e-20
0.0025
-3.335385704e-19
-4.419721423e-21
0.0025
-7.802093637e-20
1.314879462e-19
0.0025
1.663417352e-19
4.680023384e-20
0.0025
5.922440099e-19
7.608687092e-19
0.0025
-3.594077293e-18
-2.902018454e-18
0.0025
-2.141476025e-18
-8.02211011e-19
0.0025
-1.93167757e-18
-2.237259547e-18
0.0025
-9.022267344e-19
-3.724276074e-19
0.0025
-1.012157142e-18
-6.94418771e-19
0.0025
-1.734042466e-18
-1.15696501e-18
0.0025
-8.063851737e-19
-1.227647057e-18
0.0025
-1.090121803e-18
-8.154524429e-19
0.0025
-1.514182217e-18
-1.08869436e-18
0.0025
-1.284425279e-18
-1.289237281e-18
0.0025
-1.123194073e-18
-1.514112902e-18
0.0025
-1.349184928e-18
-1.203907628e-18
0.0025
-1.198276819e-18
-1.024708824e-18
0.0025
-1.021156515e-18
-1.475344553e-18
0.0025
-1.345096094e-18
-1.614911544e-18
0.0025
-1.458311076e-18
-1.34876685e-18
0.0025
-1.236015461e-18
-1.223512815e-18
0.0025
-1.280128418e-18
-1.29238383e-18
0.0025
-1.281190833e-18
-1.126894857e-18
0.0025
-8.531588892e-19
-1.107248189e-18
0.0025
-5.550708551e-19
-1.036382691e-18
0.0025
-1.415407709e-18
-6.20180584e-19
0.0025
-8.093664229e-19
-7.068704632e-19
0.0025
-1.145110499e-18
-1.00862091e-18
0.0025
-1.198727686e-18
-1.136472491e-18
0.0025
-1.016089212e-18
-1.053709766e-18
0.0025
-6.336951481e-19
-8.362635901e-19
0.0025
-6.474478012e-19
-5.736471932e-19
0.0025
-8.254176515e-19
-2.485991132e-19
0.0025
-3.392911112e-19
-1.203371328e-19
0.0025
-7.614951601e-19
-4.377002814e-19
0.0025
-6.740284747e-19
-3.811444696e-19
0.0025
-5.452608863e-19
-7.176286011e-19
0.0025
-4.858563375e-19
-6.42167799e-19
0.0025
-4.807167032e-19
-6.73655551e-19
0.0025
-8.849496494e-20
1.180816534e-19
0.0025
-1.132446573e-18
5.384664045e-19
0.0025
-7.276366943e-19
-4.630511578e-19
0.0025
-5.846014231e-19
-9.973753959e-20
0.0025
-8.122945755e-19
-4.778745284e-19
0.0025
-5.324349102e-19
-2.670344192e-19
0.0025
-2.698838812e-19
-4.895112416e-19
0.0025
-3.964502152e-19
-3.88322907e-19
0.0025
-2.986147376e-19
-4.444819099e-19
0.0025
-3.279064577e-19
-5.140248712e-19
0.0025
-8.872752116e-19
2.992738539e-19
0.0025
-8.829374891e-19
3.612736088e-19
0.0025
-5.582897302e-19
-2.673686702e-19
0.0025
-7.093800307e-19
5.40998141e-20
0.0025
-5.407027269e-19
-3.448920475e-19
0.0025
-8.085972112e-19
-3.925436748e-19
0.0025
-1.747549241e-19
-5.825531847e-19
0.0025
-2.557230798e-19
-5.52686249e-19
0.0025
-7.603874735e-20
-4.630023505e-19
0.0025
4.477635342e-21
-6.37324403e-19
0.0025
-3.447427128e-19
3.496641671e-19
0.0025
-4.411983962e-19
5.578657106e-19
0.0025
-4.767287736e-19
3.242470314e-19
0.0025
-4.938743247e-19
7.485912795e-20
0.0025
-8.543197846e-19
-2.692657583e-19
0.0025
-5.604273556e-19
-4.315478951e-19
0.0025
-7.256909769e-19
-6.730394197e-19
0.0025
-2.996536764e-19
-8.218765998e-19
0.0025
1.139032642e-19
-7.997487438e-19
0.0025
-2.303463914e-19
-6.216445978e-19
0.0025
-4.717162234e-20
-5.060463299e-19
0.0025
-2.869773442e-19
4.527748325e-19
0.0025
-5.447928017e-19
3.575162703e-21
0.0025
-6.079582616e-19
4.470082597e-19
0.0025
-2.182225897e-19
-7.757557551e-20
0.0025
-6.23572629e-19
-1.667442608e-19
0.0025
-5.506388342e-19
-6.107378662e-19
0.0025
-3.76747841e-19
-5.639712175e-19
0.0025
-4.252272062e-19
-4.406126259e-19
0.0025
-1.062743813e-19
-5.025562858e-19
0.0025
4.785852881e-20
-3.053557362e-19
0.0025
1.64969902e-19
-1.709978296e-19
0.0025
3.978294353e-19
-1.709807629e-19
0.0025
-3.494160516e-19
-8.32552628e-20
0.0025
-3.846215367e-19
3.256339164e-19
0.0025
-2.863478563e-19
3.188022643e-20
0.0025
-2.716868864e-19
-3.732614914e-20
0.0025
-3.551933536e-19
-1.849743722e-19
0.0025
-5.117301673e-19
-3.551505831e-19
0.0025
-3.507802529e-19
-4.145401703e-19
0.0025
-3.885955644e-19
-3.66132157e-19
0.0025
-2.722579187e-19
-3.153146737e-19
0.0025
-4.120983468e-20
-3.193623714e-19
0.0025
1.680761718e-19
-3.316822824e-19
0.0025
2.821839332e-19
9.608270879e-20
0.0025
7.379522671e-19
2.269304986e-19
0.0025
-6.730761653e-20
3.583332792e-19
0.0025
-2.469631846e-19
1.589904045e-20
0.0025
1.516583821e-19
1.790272803e-20
0.0025
-4.232985211e-19
-2.434486231e-19
0.0025
-5.142931106e-19
-3.921959422e-19
0.0025
-1.261090465e-20
-1.521099965e-19
0.0025
-5.615101773e-19
-3.481977343e-19
0.0025
-1.557271978e-19
-1.77976062e-19
0.0025
-1.333096303e-19
-2.570390052e-19
0.0025
-1.440544687e-19
6.521253857e-21
0.0025
1.220163632e-19
1.160148214e-19
0.0025
1.516908465e-19
-5.090559624e-20
0.0025
6.268675676e-19
2.085107763e-20
0.0025
6.555618986e-19
6.901761403e-19
0.0025
-3.709008685e-19
-2.555391228e-19
0.0025
-3.078284149e-19
4.423422557e-19
0.0025
8.805200153e-20
-4.013951089e-19
0.0025
-2.510614516e-19
-7.171327624e-19
0.0025
-7.209652084e-19
-1.467315332e-19
0.0025
-7.909972688e-20
-8.036914805e-20
0.0025
8.447711877e-20
-3.383097794e-19
0.0025
-1.651179919e-19
-2.819535907e-19
0.0025
-3.834009756e-19
2.044552168e-19
0.0025
5.519476198e-19
-1.919707088e-20
0.0025
4.160840071e-20
4.553867907e-19
0.0025
6.711200788e-20
2.837843088e-19
0.0025
2.9103686e-19
-1.672190265e-19
0.0025
-4.266224663e-19
-1.706300582e-19
0.0025
-1.676197372e-19
2.392211269e-19
0.0025
-3.487402077e-18
-3.416470727e-18
0.0025
-2.464240376e-18
-1.209255179e-18
0.0025
-2.359622005e-18
-2.915290444e-18
0.0025
-1.524935005e-18
-5.659740941e-19
0.0025
-1.433271655e-18
-1.198030176e-18
0.0025
-1.641141832e-18
-1.37813821e-18
0.0025
-5.38740941e-19
-4.172641241e-19
0.0025
-1.127271289e-18
-5.925235457e-19
0.0025
-1.3012068e-18
-1.142724466e-18
0.0025
-1.248272029e-18
-1.160712463e-18
0.0025
-1.278251085e-18
-1.453148227e-18
0.0025
-1.108671398e-18
-1.171042628e-18
0.0025
-1.187306685e-18
-9.083203021e-19
0.0025
-1.269802071e-18
-1.287384645e-18
0.0025
-1.581289814e-18
-1.483961119e-18
0.0025
-1.271296051e-18
-1.365583761e-18
0.0025
-9.832448558e-19
-1.044958864e-18
0.0025
-9.723600514e-19
-9.658375379e-19
0.0025
-1.148634523e-18
-1.143813954e-18
0.0025
-8.662773865e-19
-1.085520551e-18
0.0025
-6.767678693e-19
-8.737205464e-19
0.0025
-1.450223284e-18
-9.496692607e-19
0.0025
-1.012913813e-18
-1.18438762e-18
0.0025
-1.215116172e-18
-1.127791187e-18
0.0025
-1.257037777e-18
-1.296467734e-18
0.0025
-1.397606586e-18
-1.176604632e-18
0.0025
-6.804557745e-19
-1.087749975e-18
0.0025
-8.836593756e-19
-5.096525521e-19
0.0025
-1.23945659e-18
-4.917310733e-19
0.0025
-7.233764986e-19
-5.121543741e-19
0.0025
-8.553399007e-19
-6.150714088e-19
0.0025
-9.959961877e-19
-8.395024178e-19
0.0025
-9.237773913e-19
-9.010427226e-19
0.0025
-8.033559532e-19
-8.342703001e-19
0.0025
-6.900575767e-19
-6.539102901e-19
0.0025
-5.176381141e-19
-3.153922586e-19
0.0025
-1.307013914e-18
2.564868081e-20
0.0025
-6.147845376e-19
-5.983785007e-19
0.0025
-4.771905551e-19
-1.541102485e-19
0.0025
-8.547471718e-19