/*--------------------------------*- C++ -*----------------------------------*\
| =========                 |                                                 |
| \\      /  F ield         | OpenFOAM: The Open Source CFD Toolbox           |
|  \\    /   O peration     | Version:  2212                                  |
|   \\  /    A nd           | Website:  www.openfoam.com                      |
|    \\/     M anipulation  |                                                 |
\*---------------------------------------------------------------------------*/
FoamFile
{
    version     2.0;
    format      ascii;
    arch        "LSB;label=32;scalar=64";
    class       surfaceScalarField;
    location    "1";
    object      phiHbyA;
}
// * * * * * * * * * * * * * * * * * * * * * * * * * * * * * * * * * * * * * //

dimensions      [0 3 -1 0 0 0 0];

oriented        oriented;

internalField   nonuniform List<scalar> 
124950
(
0.0025
-1.71618319e-19
-2.075615956e-19
0.0025
-1.061991992e-18
-6.325293877e-19
0.0025
-1.639162155e-19
2.033073124e-19
0.0025
1.79591538e-20
-5.985063894e-19
0.0025
-1.537362623e-18
-7.557903891e-19
0.0025
-9.729881514e-19
5.404804998e-20
0.0025
-4.336819729e-19
-9.460446441e-19
0.0025
-2.891013544e-19
7.62705797e-20
0.0025
-1.012098882e-19
-1.602013725e-19
0.0025
1.976450444e-19
-4.716949057e-19
0.0025
-1.376732336e-18
-6.216936047e-19
0.0025
-1.33774249e-18
-1.332001648e-19
0.0025
-9.852374328e-19
-8.110742862e-19
0.0025
-7.428563561e-19
-3.200502804e-20
0.0025
-5.656110487e-19
-2.801523628e-19
0.0025
-1.778087789e-19
-9.470788822e-19
0.0025
-4.473651527e-19
3.575744001e-19
0.0025
-1.677304126e-19
-2.536950163e-19
0.0025
3.011117431e-20
-2.828697595e-19
0.0025
2.128821179e-19
-3.031182935e-19
0.0025
-9.322176491e-19
-5.954782829e-19
0.0025
-1.265034488e-18
-4.946355715e-19
0.0025
-1.372631355e-18
-7.32907056e-19
0.0025
-1.012115636e-18
-2.671704822e-19
0.0025
-9.102721755e-19
-2.006618766e-19
0.0025
-1.000277626e-18
-9.054268758e-19
0.0025
-7.081287745e-19
5.486022059e-19
0.0025
-3.957860318e-19
-1.428207786e-19
0.0025
-2.302947541e-19
-3.50202967e-19
0.0025
3.268025941e-19
-5.437399982e-19
0.0025
-1.246062378e-19
4.426382155e-19
0.0025
-3.011995947e-19
1.152979481e-19
0.0025
-3.777955889e-20
-1.473606939e-19
0.0025
1.64215541e-19
-2.279607279e-19
0.0025
5.221535962e-19
-1.303485111e-19
0.0025
-4.398734205e-19
-7.011115702e-19
0.0025
-1.092630169e-18
-8.564674871e-19
0.0025
-1.248226859e-18
-7.584927905e-19
0.0025
-1.215131405e-18
-5.674880977e-19
0.0025
-1.09638598e-18
-3.434063489e-19
0.0025
-1.184774276e-18
-6.893301514e-19
0.0025
-9.355311063e-19
3.964884453e-19
0.0025
-6.061190478e-19
-1.774271426e-19
0.0025
-8.998322563e-19
-2.889903637e-19
0.0025
-1.002514095e-19
-6.339338183e-19
0.0025
-2.224089137e-19
3.623156496e-19
0.0025
-4.093969502e-19
3.377674158e-19
0.0025
-2.192337181e-19
3.49769786e-20
0.0025
1.878898561e-19
-1.922485039e-19
0.0025
5.603102247e-19
-5.768922843e-20
0.0025
9.282866707e-20
3.36696757e-19
0.0025
-2.513752735e-19
2.303814238e-19
0.0025
-2.475871654e-19
-1.130483183e-19
0.0025
2.839648069e-19
2.266880414e-19
0.0025
2.673756665e-19
-2.064353115e-19
0.0025
7.108857304e-19
1.280166968e-19
0.0025
-6.820179356e-19
-1.298846536e-18
0.0025
-7.059343117e-19
-8.641166227e-19
0.0025
-8.02941101e-19
-8.448641104e-19
0.0025
-1.230101448e-18
-7.39990896e-19
0.0025
-1.023237864e-18
-6.294549139e-19
0.0025
-9.154680561e-19
-5.438789329e-19
0.0025
-1.28365523e-18
-2.164993272e-19
0.0025
-8.252175911e-19
-4.232488356e-19
0.0025
-1.060553681e-18
-1.624461608e-19
0.0025
-7.686499663e-19
-3.930059233e-19
0.0025
-6.667514088e-19
1.569969426e-19
0.0025
-5.990026602e-19
3.508858739e-19
0.0025
-6.259336563e-19
8.44212575e-20
0.0025
-9.702631639e-20
-3.013526701e-19
0.0025
6.464222354e-20
-2.149419908e-19
0.0025
1.850849881e-19
5.761778642e-19
0.0025
-1.856780527e-19
2.625717895e-19
0.0025
-6.128098282e-19
4.283708168e-21
0.0025
5.261429066e-20
1.677814328e-19
0.0025
2.615745712e-19
-2.373762057e-19
0.0025
5.124683286e-19
-7.515085175e-21
0.0025
-1.991206471e-19
1.730674343e-19
0.0025
-1.172045366e-19
2.058918201e-19
0.0025
-1.67331769e-19
1.193028123e-20
0.0025
9.397530911e-20
-2.538891277e-19
0.0025
-1.747651126e-19
8.740667859e-20
0.0025
5.07917737e-19
-2.98245622e-20
0.0025
2.06895328e-19
-1.283810809e-19
0.0025
-1.236332155e-18
-2.066960565e-18
0.0025
-8.228060653e-19
-8.904753149e-19
0.0025
-5.224824618e-19
-1.092618572e-18
0.0025
-1.153466251e-18
-8.280859493e-19
0.0025
-8.618287017e-19
-7.867061069e-19
0.0025
-3.184527944e-19
-4.622935387e-19
0.0025
-1.222020404e-18
-4.591695723e-19
0.0025
-9.346674468e-19
-6.014126074e-19
0.0025
-8.664989199e-19
-3.109912339e-19
0.0025
-8.137429248e-19
-8.260707287e-20
0.0025
-1.120573637e-18
-2.57377571e-20
0.0025
-7.634861781e-19
1.968965915e-19
0.0025
-8.21619032e-19
-1.836931781e-19
0.0025
-4.413961404e-19
-3.201495883e-19
0.0025
-6.220124668e-19
-2.335099335e-19
0.0025
-1.847633703e-19
5.484617632e-19
0.0025
-4.629078327e-19
1.156849695e-19
0.0025
-7.677851329e-19
2.439342348e-19
0.0025
-1.539832747e-19
-2.874521069e-20
0.0025
-1.165715975e-20
-3.977470129e-19
0.0025
-3.865915876e-20
-3.908154126e-19
0.0025
-2.734642266e-19
1.280162288e-19
0.0025
1.441508749e-20
3.191448185e-19
0.0025
-5.122470197e-19
2.07493356e-19
0.0025
-1.628486455e-19
-1.664060116e-19
0.0025
-2.055958491e-19
-8.507972507e-20
0.0025
3.375688237e-19
-1.593962607e-19
0.0025
6.222196372e-21
-5.619850623e-19
0.0025
-1.143246845e-19
2.346061992e-19
0.0025
-1.757299229e-19
-5.604594799e-21
0.0025
-1.405244087e-20
1.364217613e-19
0.0025
-2.539664597e-19
-2.956455649e-19
0.0025
-2.575303207e-19
-1.830106658e-19
0.0025
-1.385898417e-19
-2.68194878e-19
0.0025
1.385841768e-19
3.990715529e-20
0.0025
4.271549004e-19
-1.518680671e-19
0.0025
-1.351814585e-18
-2.02639921e-18
0.0025
-1.474257516e-18
-1.652077223e-18
0.0025
-7.861659077e-19
-1.55654299e-18
0.0025
-1.27045873e-18
-9.345254008e-19
0.0025
-7.155760673e-19
-8.515359896e-19
0.0025
-1.732576494e-19
-6.544155734e-19
0.0025
-1.01792865e-18
-5.852073621e-19
0.0025
-9.116355816e-19
-7.129655509e-19
0.0025
-4.379345707e-19
-4.669319778e-19
0.0025
-5.795946483e-19
-1.128684044e-19
0.0025
-1.133777432e-18
-2.670829213e-19
0.0025
-8.008559809e-19
-9.473814167e-20
0.0025
-7.712551378e-19
-3.672954101e-19
0.0025
-5.465547326e-19
-2.295994808e-19
0.0025
-7.8834217e-19
-9.043763688e-20
0.0025
-6.370313711e-19
4.821704753e-19
0.0025
-5.142784931e-19
1.494278349e-19
0.0025
-6.042833486e-19
5.471600204e-19
0.0025
-1.26593284e-19
-1.587454303e-19
0.0025
-5.397162497e-19
-5.492582386e-19
0.0025
-9.150343437e-19
-7.196484624e-19
0.0025
-3.23261634e-19
2.803771866e-19
0.0025
-1.919568098e-19
2.920093021e-19
0.0025
-6.17439237e-19
3.427207817e-19
0.0025
-6.271511236e-19
-3.37742458e-20
0.0025
-2.334584037e-19
-3.766820576e-19
0.0025
8.395439283e-21
-4.459787174e-19
0.0025
-3.655459587e-19
-9.800666318e-19
0.0025
-1.911438681e-19
4.054775821e-19
0.0025
-2.394812411e-19
-2.084770156e-19
0.0025
-9.609673413e-20
3.163737578e-19
0.0025
-4.325078736e-19
-8.904578557e-20
0.0025
-3.338023559e-19
-1.110676899e-19
0.0025
-1.404358641e-19
-3.053113241e-19
0.0025
1.7271173e-19
-1.570883073e-19
0.0025
4.858629003e-19
-5.621665703e-19
0.0025
4.461681585e-20
3.040418131e-19
0.0025
-1.223184731e-20
-7.168397813e-20
0.0025
-2.080765021e-19
-2.338138542e-19
0.0025
-4.732567514e-19
-1.528770126e-19
0.0025
-1.57150318e-19
-2.840941591e-19
0.0025
-3.481312158e-19
-7.412741857e-20
0.0025
-1.104224573e-19
-4.626702496e-19
0.0025
1.787747511e-19
1.092422496e-20
0.0025
2.988768586e-19
-4.251874031e-20
0.0025
-1.354235451e-18
-1.709649176e-18
0.0025
-1.686693725e-18
-2.00156732e-18
0.0025
-1.053177701e-18
-1.78906201e-18
0.0025
-1.853467364e-18
-1.682778563e-18
0.0025
-1.057844725e-18
-1.555200466e-18
0.0025
-1.006075133e-18
-1.481874824e-18
0.0025
-1.09564058e-18
-6.169539908e-19
0.0025
-9.191732654e-19
-7.575664797e-19
0.0025
-3.659016391e-19
-5.620749464e-19
0.0025
-4.309244767e-19
-6.118521452e-19
0.0025
-8.776546829e-19
-2.510449452e-19
0.0025
-5.576976526e-19
-3.794411081e-19
0.0025
-6.55611153e-19
-5.465193252e-19
0.0025
-5.589977366e-19
-1.536046719e-19
0.0025
-5.365839351e-19
-1.569331173e-19
0.0025
-6.587325369e-19
2.653585316e-19
0.0025
-4.929479193e-19
9.814870099e-20
0.0025
-5.526149992e-19
3.851360275e-19
0.0025
-1.651902796e-19
-1.125648871e-19
0.0025
-4.947556546e-19
-2.164256973e-19
0.0025
-1.085265537e-18
-6.44266577e-19
0.0025
-5.321850322e-19
5.422410027e-19
0.0025
-2.806531656e-19
4.052624202e-19
0.0025
-4.503771462e-19
3.628466444e-19
0.0025
-6.216038708e-19
4.804350681e-20
0.0025
-2.842398366e-19
-3.368058063e-19
0.0025
-3.923386956e-19
-5.649711318e-19
0.0025
-7.899234054e-19
-1.259124695e-18
0.0025
-2.903397529e-19
5.170154057e-19
0.0025
-3.177161594e-19
9.353170063e-20
0.0025
-9.721819197e-20
3.311540357e-19
0.0025
-6.763685247e-19
1.456515645e-19
0.0025
-4.238154108e-19
-2.817165193e-19
0.0025
-1.038716187e-19
-4.467593448e-19
0.0025
-1.23250512e-19
-5.165680032e-19
0.0025
2.127924954e-19
-1.003701478e-18
0.0025
1.393166026e-19
5.235586209e-19
0.0025
-1.713669507e-19
-1.001365218e-19
0.0025
-1.682062202e-19
-2.053997106e-19
0.0025
-6.367805311e-19
5.759152481e-20
0.0025
-3.471994859e-19
-3.155325573e-19
0.0025
-3.528088321e-19
-4.746286768e-20
0.0025
-1.006756094e-19
-6.6806984e-19
0.0025
1.975118336e-19
-4.537274985e-19
0.0025
3.574018683e-19
-2.515189291e-19
0.0025
-2.102835669e-19
1.235313259e-19
0.0025
1.632279947e-19
2.209542922e-19
0.0025
-2.067677542e-19
-2.662683157e-19
0.0025
-2.458223211e-19
-2.658932409e-19
0.0025
-3.146812266e-19
-1.029283335e-19
0.0025
-1.898723238e-19
-1.083512242e-19
0.0025
-1.161393764e-19
-2.061716251e-19
0.0025
-7.087220392e-20
-2.103172595e-19
0.0025
-1.66336907e-19
-2.586710274e-19
0.0025
3.657697387e-19
-1.290322647e-19
0.0025
-1.261917634e-18
-1.280967878e-18
0.0025
-1.661787004e-18
-1.855425125e-18
0.0025
-1.238467891e-18
-1.713933181e-18
0.0025
-1.992526585e-18
-1.94041096e-18
0.0025
-1.263886064e-18
-1.883492036e-18
0.0025
-1.556088983e-18
-1.914843699e-18
0.0025
-1.538115047e-18
-9.601550096e-19
0.0025
-1.267928304e-18
-1.32001916e-18
0.0025
-1.057948275e-18
-1.36038832e-18
0.0025
-6.592294681e-19
-1.564066993e-18
0.0025
-1.068220925e-18
-2.23693201e-19
0.0025
-5.410183112e-19
-5.770252345e-19
0.0025
-7.657957561e-19
-7.757085515e-19
0.0025
-5.373087583e-19
-4.31426145e-19
0.0025
-1.85504445e-19
-5.428285517e-19
0.0025
-5.786874444e-19
5.095092359e-20
0.0025
-4.196101021e-19
-9.300893334e-20
0.0025
-4.626162295e-19
-4.886133629e-20
0.0025
-3.807281808e-19
-2.472892134e-19
0.0025
-3.8242893e-19
-1.000139226e-19
0.0025
-5.310617203e-19
-4.108924353e-19
0.0025
-4.885847695e-19
4.37991723e-19
0.0025
-4.25084936e-19
3.891884356e-19
0.0025
-4.844389374e-19
3.032804862e-19
0.0025
-3.143010165e-19
1.692354739e-19
0.0025
-1.881604644e-19
-8.09523711e-20
0.0025
-5.844060956e-19
-4.147162077e-19
0.0025
-6.51171306e-19
-9.880016506e-19
0.0025
-5.806356678e-19
7.154143958e-19
0.0025
-4.994111385e-19
4.56339199e-19
0.0025
-1.841119186e-19
4.948646224e-19
0.0025
-5.612271345e-19
1.699978698e-19
0.0025
-2.642308629e-19
-3.960967862e-19
0.0025
1.416812965e-20
-5.095768421e-19
0.0025
-4.683835937e-19
-7.341573566e-19
0.0025
-2.928575984e-19
-1.301526655e-18
0.0025
2.187024048e-19
5.358336047e-19
0.0025
-3.110448358e-19
1.967634735e-19
0.0025
-1.692201472e-19
1.054998178e-19
0.0025
-3.593309263e-19
2.870690644e-19
0.0025
-5.745264168e-19
-3.990530716e-19
0.0025
-4.81165825e-19
-4.056330573e-19
0.0025
-1.85022182e-19
-6.802839591e-19
0.0025
7.004864382e-20
-7.027673706e-19
0.0025
1.561720864e-19
-6.550812306e-19
0.0025
-3.450772671e-19
1.15677833e-19
0.0025
7.131690083e-20
4.70160204e-20
0.0025
-1.708344665e-19
-1.694819559e-19
0.0025
-5.495176146e-19
-1.05718041e-19
0.0025
-3.428746887e-19
-1.041515443e-19
0.0025
-3.154308343e-19
-2.506110746e-19
0.0025
-3.593995755e-19
-4.374870946e-19
0.0025
-9.643441297e-20
-4.879284804e-19
0.0025
-7.826157881e-20
-6.536592356e-19
0.0025
3.46338357e-19
-3.851015829e-19
0.0025
-3.051445277e-19
2.939015608e-19
0.0025
-3.710085661e-20
-2.154601362e-19
0.0025
-2.48634018e-19
-4.69500925e-20
0.0025
1.355619644e-19
-1.597026456e-19
0.0025
-3.945732102e-19
2.418756105e-20
0.0025
-2.006768452e-19
-1.018423575e-20
0.0025
1.43469823e-19
-2.72858776e-19
0.0025
-2.596839594e-19
-3.510953129e-19
0.0025
-2.290228315e-19
2.90052476e-20
0.0025
7.21792169e-20
-3.24260009e-19
0.0025
9.531231615e-20
-2.246665672e-19
0.0025
-1.111600864e-18
-7.164049398e-19
0.0025
-1.389562765e-18
-1.397910725e-18
0.0025
-1.117716396e-18
-1.09318619e-18
0.0025
-1.605807933e-18
-1.444808419e-18
0.0025
-1.339759016e-18
-1.711304431e-18
0.0025
-1.343310324e-18
-1.789884803e-18
0.0025
-1.703298686e-18
-1.245201609e-18
0.0025
-1.522371723e-18
-1.696185655e-18
0.0025
-1.426145866e-18
-1.779467497e-18
0.0025
-8.250164976e-19
-1.709533548e-18
0.0025
-1.466544903e-18
-8.084890142e-19
0.0025
-1.182908072e-18
-1.119977216e-18
0.0025
-1.120803917e-18
-1.066873972e-18
0.0025
-8.59501447e-19
-1.255503133e-18
0.0025
-5.241704317e-19
-1.112728264e-18
0.0025
-9.231367158e-19
-9.087212519e-20
0.0025
-6.010032511e-19
-2.538748556e-19
0.0025
-6.013572207e-19
-3.709443892e-19
0.0025
-5.715099182e-19
-6.545615792e-19
0.0025
-4.577528578e-19
-5.498340938e-19
0.0025
-1.775192798e-19
-4.333019706e-19
0.0025
-6.222516563e-19
2.921273179e-19
0.0025
-6.440811445e-19
-4.998789346e-20
0.0025
-4.054497777e-19
1.673147074e-20
0.0025
-2.310252828e-19
2.855028381e-20
0.0025
-1.455935039e-19
-7.73616018e-20
0.0025
-5.122624453e-19
-4.057851011e-19
0.0025
-3.87778814e-19
-5.960550746e-19
0.0025
-7.454002806e-19
1.293417782e-19
0.0025
-6.967758402e-19
4.107389431e-19
0.0025
-4.542875588e-19
4.44712077e-19
0.0025
-4.351758493e-19
1.295340805e-19
0.0025
-2.910071665e-19
-9.907356661e-20
0.0025
-1.293001429e-19
-4.470360838e-19
0.0025
-3.174677194e-19
-7.517973091e-19
0.0025
-7.298182522e-19
-1.396159403e-18
0.0025
-1.227650414e-19
6.171566376e-19
0.0025
-5.473004184e-19
5.408713876e-19
0.0025
-2.834857228e-19
3.367540461e-19
0.0025
-2.373618327e-19
3.857193562e-19
0.0025
-4.284848438e-19
-3.227456535e-19
0.0025
-3.478168636e-19
-6.280891072e-19
0.0025
-2.35517076e-19
-7.702020448e-19
0.0025
-2.815208052e-19
-8.020923181e-19
0.0025
-2.534003159e-19
-1.02861539e-18
0.0025
-1.71485889e-19
2.679397015e-19
0.0025
-4.321916469e-20
1.244911274e-19
0.0025
-3.343321388e-19
6.429433975e-20
0.0025
-4.47816401e-19
-3.032385278e-20
0.0025
-4.030105494e-19
-7.206774275e-20
0.0025
-5.162685837e-19
-4.351690377e-19
0.0025
-4.415321591e-19
-6.050673404e-19
0.0025
-1.184391098e-19
-7.724359915e-19
0.0025
4.985242074e-20
-6.607951433e-19
0.0025
2.203218733e-19
-5.750531385e-19
0.0025
-5.243935464e-19
3.148424585e-19
0.0025
-1.886780434e-19
-1.744050207e-19
0.0025
-2.445461823e-19
-2.911513618e-19
0.0025
-4.522456673e-20
1.548332184e-19
0.0025
-4.343234594e-19
-6.432255329e-20
0.0025
-2.848192122e-19
-8.611317443e-20
0.0025
-1.681223071e-19
-3.946558573e-19
0.0025
-3.833509069e-19
-7.456473022e-19
0.0025
-1.075920201e-19
-1.842129378e-19
0.0025
2.133583998e-19
-4.842193474e-19
0.0025
1.53537604e-19
-4.835425861e-19
0.0025
-1.135444033e-19
2.211854179e-19
0.0025
-1.839588984e-19
-1.221950618e-19
0.0025
-2.301852671e-19
9.847279038e-20
0.0025
-2.987868472e-20
-1.795316484e-19
0.0025
1.351184382e-19
1.613375834e-19
0.0025
-3.919159626e-20
1.731537853e-19
0.0025
3.834123335e-21
-4.218765724e-19
0.0025
-1.358896026e-19
-2.691546129e-19
0.0025
-1.537000547e-19
-2.361728745e-19
0.0025
-3.340431593e-19
-2.504883573e-19
0.0025
7.086186301e-20
-9.781479541e-21
0.0025
2.417938738e-19
-2.26568077e-19
0.0025
-1.53458023e-18
-7.734814432e-19
0.0025
-1.063864825e-18
-8.591096498e-19
0.0025
-9.276827797e-19
-4.216063764e-19
0.0025
-1.114411804e-18
-1.202647969e-18
0.0025
-1.176771557e-18
-1.223322134e-18
0.0025
-1.314391571e-18
-1.145526826e-18
0.0025
-1.293497073e-18
-1.26119062e-18
0.0025
-1.503707388e-18
-1.325077107e-18
0.0025
-1.287268131e-18
-1.604279838e-18
0.0025
-8.364309222e-19
-1.547023874e-18
0.0025
-1.646458424e-18
-1.361015103e-18
0.0025
-1.663885754e-18
-1.321748203e-18
0.0025
-1.335283036e-18
-1.307026901e-18
0.0025
-8.768957885e-19
-1.599935893e-18
0.0025
-9.465337547e-19
-1.169151695e-18
0.0025
-1.350752208e-18
-5.732676539e-19
0.0025
-1.210609359e-18
-7.396465567e-19
0.0025
-9.336596663e-19
-8.377745343e-19
0.0025
-1.011230224e-18
-9.876207927e-19
0.0025
-4.285795297e-19
-8.673641038e-19
0.0025
-3.191430013e-19
-8.366744989e-19
0.0025
-6.680637394e-19
3.909257216e-19
0.0025
-9.663755867e-19
-5.068985499e-19
0.0025
-5.601479983e-19
-2.14064069e-19
0.0025
-4.005773935e-19
-3.124266991e-19
0.0025
-3.812320428e-19
-3.635831086e-19
0.0025
-3.542940352e-19
-5.638371592e-19
0.0025
-1.811012202e-19
-3.243401311e-19
0.0025
-1.262171803e-18
-5.913263267e-19
0.0025
-7.579399666e-19
2.353772238e-19
0.0025
-6.5604886e-19
-1.200130746e-19
0.0025
-4.199906116e-19
7.437043617e-21
0.0025
-2.892688364e-19
-1.189452319e-19
0.0025
-3.358176537e-19
-3.601694773e-19
0.0025
-3.005908245e-19
-6.722068482e-19
0.0025
-5.810385231e-19
-1.014273341e-18
0.0025
-5.770455693e-19
4.413587175e-19
0.0025
-7.464761891e-19
2.699609477e-19
0.0025
-4.836753305e-19
3.414394076e-19
0.0025
-4.7633171e-19
1.339348265e-19
0.0025
-4.464284254e-19
-1.428787856e-19
0.0025
-3.674913029e-19
-3.973561667e-19
0.0025
-1.3823506e-19
-7.720220265e-19
0.0025
-4.77259829e-19
-8.289430854e-19
0.0025
-4.367544994e-19
-1.3206962e-18
0.0025
-6.68095073e-20
5.906119796e-19
0.0025
-2.672307634e-19
4.538914436e-19
0.0025
-6.662672265e-19
6.199886113e-20
0.0025
-6.180656342e-19
-1.345118225e-19
0.0025
-6.149433592e-19
-2.294585434e-19
0.0025
-6.05162028e-19
-6.957707714e-19
0.0025
-3.9693209e-19
-7.914378511e-19
0.0025
-2.046807058e-19
-8.9290659e-19
0.0025
-1.248092095e-19
-5.138942668e-19
0.0025
1.773985393e-19
-7.226277434e-19
0.0025
-6.325218281e-19
-2.400159413e-21
0.0025
-2.52567424e-19
1.899773245e-19
0.0025
-3.144822067e-19
-5.797666078e-20
0.0025
-2.100392528e-19
2.060090121e-19
0.0025
-3.997393216e-19
-3.566596936e-19
0.0025
-3.081206281e-19
-2.608799868e-19
0.0025
-4.73361082e-19
-4.312185102e-19
0.0025
-3.603992275e-19
-6.943484808e-19
0.0025
-8.517412823e-21
-5.59314735e-19
0.0025
1.713628564e-19
-4.683304736e-19
0.0025
2.114211551e-19
-4.811818917e-19
0.0025
-1.251872921e-19
4.452965799e-19
0.0025
-4.792354926e-19
-7.348003982e-20
0.0025
-3.597440655e-19
1.282165473e-19
0.0025
2.619453306e-19
-9.705420128e-20
0.0025
-1.26586486e-19
1.751165712e-19
0.0025
-1.728808103e-19
-5.191466882e-20
0.0025
-1.453324843e-19
-4.357001971e-19
0.0025
-3.581085378e-19
-3.921286968e-19
0.0025
-9.916826779e-20
-4.70993908e-19
0.0025
-2.314283546e-19
-5.135759015e-19
0.0025
2.018717408e-19
-1.695843653e-19
0.0025
3.367085991e-19
-3.918591077e-19
0.0025
2.601136687e-19
7.537009036e-19
0.0025
-2.000199173e-19
1.007213314e-19
0.0025
1.39369484e-19
3.502461641e-20
0.0025
-3.445586778e-20
1.436766238e-19
0.0025
3.689539297e-19
-4.248876614e-20
0.0025
5.318077961e-20
1.718711766e-19
0.0025
-3.531510783e-19
-9.525952945e-20
0.0025
-2.98409394e-20
-4.656261117e-19
0.0025
7.130007083e-20
-9.001142094e-20
0.0025
-2.887650569e-19
-6.937199431e-20
0.0025
-1.872299394e-21
-1.770538075e-19
0.0025
-9.026646692e-20
8.987761841e-20
0.0025
5.76360306e-19
2.56501388e-19
0.0025
-2.852521102e-18
-2.115451567e-18
0.0025
-1.388539257e-18
-5.843817779e-19
0.0025
-1.031965175e-18
-5.682658836e-19
0.0025
-7.224410231e-19
-7.759121402e-19
0.0025
-1.010498088e-18
-7.98575644e-19
0.0025
-1.634878723e-18
-7.825714163e-19
0.0025
-9.373470303e-19
-1.255185015e-18
0.0025
-1.281487304e-18
-1.036151293e-18
0.0025
-1.305967976e-18
-1.248848012e-18
0.0025
-1.003012417e-18
-1.318202963e-18
0.0025
-1.342229116e-18
-1.47582715e-18
0.0025
-1.569778399e-18
-1.19805509e-18
0.0025
-1.323585986e-18
-1.219617104e-18
0.0025
-8.435928947e-19
-1.402913953e-18
0.0025
-9.18524598e-19
-1.171321376e-18
0.0025
-1.637522783e-18
-1.231046379e-18
0.0025
-1.478749336e-18
-1.072607855e-18
0.0025
-1.230516227e-18
-1.15250582e-18
0.0025
-1.059191522e-18
-1.101933329e-18
0.0025
-5.626913452e-19
-9.630404766e-19
0.0025
-7.292748537e-19
-1.008342885e-18
0.0025
-8.987255155e-19
-2.082295043e-19
0.0025
-1.042516325e-18
-5.794056082e-19
0.0025
-8.603883575e-19
-5.568827024e-19
0.0025
-6.976880982e-19
-5.870877977e-19
0.0025
-4.855641547e-19
-7.341859994e-19
0.0025
-3.333203892e-19
-7.105507061e-19
0.0025
-2.858025358e-19
-4.17531253e-19
0.0025
-1.221145143e-18
-5.540537886e-19
0.0025
-8.263093433e-19
3.080895944e-19
0.0025
-7.734423171e-19
-5.284066665e-19
0.0025
-4.702027155e-19
-8.297117823e-20
0.0025
-3.574937508e-19
-5.363614645e-19
0.0025
-4.159537924e-19
-4.707195577e-19
0.0025
-3.691730753e-19
-4.936138159e-19
0.0025
-2.61884771e-19
-4.428347539e-19
0.0025
-1.062409786e-18
5.301275687e-19
0.0025
-8.480422996e-19
-4.219423711e-19
0.0025
-7.984673207e-19
1.147812868e-19
0.0025
-6.46686891e-19
-2.794861641e-19
0.0025
-4.869530393e-19
-1.028992012e-19
0.0025
-3.962482705e-19
-3.628080531e-19
0.0025
-1.878852096e-19
-5.438214682e-19
0.0025
-4.76422673e-19
-7.479609576e-19
0.0025
-2.939528401e-19
-1.063688598e-18
0.0025
-4.290694565e-19
3.478172811e-19
0.0025
-5.082971153e-19
4.518118945e-19
0.0025
-6.227005511e-19
1.241794476e-19
0.0025
-6.861667028e-19
9.133139987e-21
0.0025
-7.135929143e-19
-2.482583301e-19
0.0025
-6.3647002e-19
-6.71225986e-19
0.0025
-4.783373448e-19
-7.761183216e-19
0.0025
-3.703253985e-19
-9.415028417e-19
0.0025
-2.306261912e-19
-6.277149827e-19
0.0025
2.061325238e-19
-8.081521248e-19
0.0025
-4.236363692e-19
6.29234265e-20
0.0025
-3.107712578e-19
5.150392143e-19
0.0025
-6.242666589e-19
2.646155769e-19
0.0025
-5.323285339e-19
-1.005857986e-20
0.0025
-6.569703677e-19
-4.681285374e-19
0.0025
-4.852101433e-19
-5.665858218e-19
0.0025
-4.370757041e-19
-6.871129187e-19
0.0025
-3.031159143e-19
-7.023558309e-19
0.0025
2.167656693e-20
-6.050088499e-19
0.0025
-7.661929713e-20
-3.797510776e-19
0.0025
2.293264238e-19
-4.433077787e-19
0.0025
-2.854021507e-19
4.507586219e-19
0.0025
-6.38243272e-19
-1.048869803e-19
0.0025
-4.543956421e-19
2.068821092e-19
0.0025
1.842631145e-19
2.551162853e-20
0.0025
-4.145133667e-19
-5.204776454e-20
0.0025
-2.596111168e-19
-4.257705037e-19
0.0025
-3.539723132e-19
-3.95713386e-19
0.0025
-5.019568989e-19
-4.261270772e-19
0.0025
-1.273628007e-19
-4.811019746e-19
0.0025
8.640890599e-20
-4.838484414e-19
0.0025
2.499940555e-19
-2.451149586e-19
0.0025
4.148669493e-19
-2.210089925e-19
0.0025
1.093459356e-19
5.21602152e-19
0.0025
-3.647839463e-19
1.975163805e-19
0.0025
-7.249239214e-20
3.995651149e-20
0.0025
7.711223282e-20
4.022009624e-20
0.0025
1.180128901e-19
-2.152286488e-20
0.0025
-1.540847655e-19
6.938574499e-21
0.0025
-4.829642948e-19
-2.419068532e-19
0.0025
-1.845362137e-19
-4.635176965e-19
0.0025
-7.475743858e-20
-2.551601863e-19
0.0025
-2.739921e-19
-1.850211225e-19
0.0025
1.96553576e-19
-2.710834127e-19
0.0025
1.32509989e-19
2.211618903e-20
0.0025
7.250604021e-19
1.918903541e-19
0.0025
2.737582691e-19
2.456652668e-19
0.0025
-2.916588512e-19
2.651143616e-19
0.0025
3.348622837e-19
9.033141347e-20
0.0025
1.196302696e-20
7.560893355e-20
0.0025
-1.65239349e-19
-2.620951726e-19
0.0025
-1.980755127e-19
-2.047457757e-19
0.0025
-2.695485474e-19
-1.981700469e-19
0.0025
-2.08396658e-19
-5.511575547e-20
0.0025
1.398147479e-19
-1.846607024e-19
0.0025
9.531174933e-20
3.004408502e-20
0.0025
-1.472922701e-19
6.097361504e-20
0.0025
-5.524426999e-20
7.539904088e-20
0.0025
2.880983552e-19
1.00925691e-20
0.0025
4.279990667e-19
6.43875316e-19
0.0025
-3.507532979e-18
-2.878197101e-18
0.0025
-2.148208298e-18
-7.852963121e-19
0.0025
-1.767072071e-18
-1.961955665e-18
0.0025
-8.573091232e-19
-4.559057549e-19
0.0025
-1.071855843e-18
-6.643454736e-19
0.0025
-1.639509156e-18
-8.94041555e-19
0.0025
-7.568082727e-19
-1.13042505e-18
0.0025
-1.146257329e-18
-7.75866536e-19
0.0025
-1.44336082e-18
-1.049856996e-18
0.0025
-1.311909353e-18
-1.24231153e-18
0.0025
-1.161096884e-18
-1.448895891e-18
0.0025
-1.305653391e-18
-1.110599397e-18
0.0025
-1.182402238e-18
-1.055842171e-18
0.0025
-9.806281658e-19
-1.321524223e-18
0.0025
-1.269778647e-18
-1.474558922e-18
0.0025
-1.451080796e-18
-1.425052642e-18
0.0025
-1.32536165e-18
-1.13016207e-18
0.0025
-1.257872679e-18
-1.235183537e-18
0.0025
-1.130965386e-18
-1.150936133e-18
0.0025
-8.350351857e-19
-9.998425756e-19
0.0025
-6.670246735e-19
-9.939826605e-19
0.0025
-1.406182725e-18
-5.760627511e-19
0.0025
-9.357148416e-19
-7.994278871e-19
0.0025
-1.164555261e-18
-9.812070157e-19
0.0025
-1.093186053e-18
-1.066131807e-18
0.0025
-8.22342254e-19
-9.986276587e-19
0.0025
-6.048929638e-19
-7.630727484e-19
0.0025
-7.599518462e-19
-6.557708397e-19
0.0025
-1.119993261e-18
-4.236006249e-19
0.0025
-5.501740631e-19
-1.248630398e-19
0.0025
-8.385440281e-19
-4.45803848e-19
0.0025
-6.179261225e-19
-3.33743098e-19
0.0025
-5.261902933e-19
-7.852053902e-19
0.0025
-4.862484415e-19
-6.279784946e-19
0.0025
-4.904463449e-19
-6.145492442e-19
0.0025
-1.725770133e-19
-1.623649558e-19
0.0025
-1.133030692e-18
5.585518701e-19
0.0025
-7.597628112e-19
-5.70228826e-19
0.0025
-7.492122379e-19
3.6816611e-20
0.0025
-6.823123209e-19
-4.266908568e-19
0.0025
-5.217705328e-19
-1.352782438e-19
0.0025
-3.180903197e-19
-4.934682558e-19
0.0025
-3.139374792e-19
-4.497674728e-19
0.0025
-3.211729117e-19
-4.985713572e-19
0.0025
-2.862788583e-19
-5.695373622e-19
0.0025
-7.24089321e-19
2.388603127e-19
0.0025
-7.914368182e-19
3.989251368e-19
0.0025
-6.811084366e-19
-8.519251596e-20
0.0025
-7.208148675e-19
6.944730737e-20
0.0025
-5.837399071e-19
-3.184181302e-19
0.0025
-6.070949897e-19
-4.69604872e-19
0.0025
-3.208492313e-19
-6.220231234e-19
0.0025
-3.692118416e-19
-7.177809969e-19
0.0025
-2.618029053e-19
-6.987255539e-19
0.0025
-1.193748571e-21
-7.042194627e-19
0.0025
-3.898317401e-19
3.413464745e-19
0.0025
-3.280862618e-19
4.607608351e-19
0.0025
-5.987499631e-19
2.642406641e-19
0.0025
-5.466912206e-19
-7.912347592e-20
0.0025
-8.420824212e-19
-2.799259236e-19
0.0025
-6.025928162e-19
-4.079906817e-19
0.0025
-5.824040536e-19
-7.28007896e-19
0.0025
-3.889187927e-19
-7.82646084e-19
0.0025
4.081788699e-20
-6.943577373e-19
0.0025
-7.226711917e-20
-4.969614135e-19
0.0025
4.551735326e-20
-5.269337234e-19
0.0025
-3.299222458e-19
5.217020573e-19
0.0025
-5.30259496e-19
2.95439799e-21
0.0025
-5.144758645e-19
3.262410298e-19
0.0025
-2.066541912e-19
3.667233828e-20
0.0025
-5.156993067e-19
-9.225626543e-20
0.0025
-4.287899216e-19
-4.974690458e-19
0.0025
-3.956955319e-19
-6.278050666e-19
0.0025
-4.040795285e-19
-4.940853765e-19
0.0025
-1.53379383e-19
-4.940759145e-19
0.0025
1.048358776e-20
-2.447758986e-19
0.0025
9.344142312e-20
-1.564840964e-19
0.0025
5.511683705e-19
-1.502444975e-19
0.0025
-2.377308969e-19
1.257743745e-19
0.0025
-4.202192331e-19
3.03804708e-19
0.0025
-2.890649694e-19
1.873810522e-19
0.0025
-1.746299988e-19
-1.242322628e-19
0.0025
-2.266158799e-19
-1.073307872e-19
0.0025
-3.690857632e-19
-2.837776929e-19
0.0025
-3.423396762e-19
-4.026653804e-19
0.0025
-3.535742075e-19
-3.577905278e-19
0.0025
-2.339795086e-19
-2.907921957e-19
0.0025
3.591002287e-21
-2.685182354e-19
0.0025
2.64442184e-19
-2.583300133e-19
0.0025
3.045945198e-19
-2.06680886e-20
0.0025
5.927385302e-19
2.859876228e-19
0.0025
7.191203691e-20
3.949886193e-19
0.0025
-3.139945277e-19
9.407813495e-20
0.0025
2.880978193e-19
1.277948239e-19
0.0025
-4.077969009e-19
-1.489737153e-19
0.0025
-3.576918782e-19
-4.047417637e-19
0.0025
-2.476083589e-19
-2.441864397e-19
0.0025
-5.085926953e-19
-3.626875848e-19
0.0025
-2.392902372e-19
-1.792900876e-19
0.0025
-8.126517865e-20
-2.227700412e-19
0.0025
-8.832123965e-20
-5.975121691e-20
0.0025
-3.101547564e-20
5.706465545e-20
0.0025
2.4784208e-19
2.75039353e-20
0.0025
7.086473669e-19
1.352732218e-19
0.0025
6.533357283e-19
7.239126884e-19
0.0025
-3.180235006e-19
-5.833062913e-20
0.0025
-2.366626668e-19
3.666290068e-19
0.0025
1.20856896e-19
-2.177454282e-19
0.0025
-4.719446295e-20
-2.597665165e-19
0.0025
-3.893925444e-19
-1.821252806e-19
0.0025
-2.274315601e-19
-1.593338272e-19
0.0025
-1.863041884e-20
-3.052157141e-19
0.0025
-1.724853093e-19
-2.570379023e-19
0.0025
-2.624767211e-19
-3.7831825e-20
0.0025
1.757725918e-19
-1.604377465e-20
0.0025
-3.428591646e-20
3.065810869e-19
0.0025
3.915926782e-20
1.149974051e-19
0.0025
2.01115528e-19
7.575448865e-20
0.0025
-2.518466647e-20
-9.723872539e-21
0.0025
-5.38454996e-20
3.494603583e-19
0.0025
-3.495158835e-18
-3.231023664e-18
0.0025
-2.612542161e-18
-1.188569534e-18
0.0025
-2.276544345e-18
-2.927848514e-18
0.0025
-1.320489292e-18
-5.648436617e-19
0.0025
-1.455711043e-18
-1.032357863e-18
0.0025
-1.585004048e-18
-1.340324659e-18
0.0025
-5.545071403e-19
-5.125553081e-19
0.0025
-1.09437238e-18
-6.258909397e-19
0.0025
-1.424346192e-18
-9.514143351e-19
0.0025
-1.224151536e-18
-1.105463613e-18
0.0025
-1.163340776e-18
-1.374608192e-18
0.0025
-1.077988797e-18
-1.021460207e-18
0.0025
-1.133445697e-18
-8.758060183e-19
0.0025
-1.205303754e-18
-1.261105358e-18
0.0025
-1.62922671e-18
-1.385837531e-18
0.0025
-1.365935436e-18
-1.421049734e-18
0.0025
-1.141310409e-18
-1.062561974e-18
0.0025
-1.039739856e-18
-1.003977161e-18
0.0025
-1.139766219e-18
-1.160438626e-18
0.0025
-9.961940397e-19
-1.123138715e-18
0.0025
-7.791501703e-19
-1.254464466e-18
0.0025
-1.589570091e-18
-1.088405297e-18
0.0025
-1.068006322e-18
-1.07539036e-18
0.0025
-1.288815845e-18
-1.163695176e-18
0.0025
-1.32788632e-18
-1.324238355e-18
0.0025
-1.251110484e-18
-1.233265872e-18
0.0025
-8.263989239e-19
-9.983692645e-19
0.0025
-9.482824656e-19
-6.933380716e-19
0.0025
-1.319072796e-18
-4.840198133e-19
0.0025
-7.50510242e-19
-5.98880466e-19
0.0025
-9.758569874e-19
-5.947195641e-19
0.0025
-1.022503e-18
-9.149905368e-19
0.0025
-9.640645612e-19
-1.024201361e-18
0.0025
-7.878497401e-19
-8.26480016e-19
0.0025
-7.2665595e-19
-6.410971552e-19
0.0025
-5.353888865e-19
-3.983580396e-19
0.0025
-1.280605974e-18
2.036463777e-19
0.0025
-5.55736707e-19
-5.543989775e-19
0.0025
-6.395680768e-19
-9.677198889e-20
0.0025
-8.663542136e-19
-4.361047694e-19
0.0025