/*--------------------------------*- C++ -*----------------------------------*\
| =========                 |                                                 |
| \\      /  F ield         | OpenFOAM: The Open Source CFD Toolbox           |
|  \\    /   O peration     | Version:  2212                                  |
|   \\  /    A nd           | Website:  www.openfoam.com                      |
|    \\/     M anipulation  |                                                 |
\*---------------------------------------------------------------------------*/
FoamFile
{
    version     2.0;
    format      ascii;
    arch        "LSB;label=32;scalar=64";
    class       volVectorField;
    location    "1";
    object      U;
}
// * * * * * * * * * * * * * * * * * * * * * * * * * * * * * * * * * * * * * //

dimensions      [0 1 -1 0 0 0 0];

internalField   nonuniform List<vector> 
42875
(
(1 -1.156825009e-16 -3.170849178e-17)
(1 -4.622703612e-16 -2.910851218e-16)
(1 -8.96113077e-17 1.411291599e-16)
(1 2.887677671e-17 -2.813970348e-16)
(1 -6.369791974e-16 -3.476192289e-16)
(1 -5.211739469e-16 2.616304231e-17)
(1 -9.091016756e-17 -3.515642119e-16)
(1 -1.981587537e-17 7.196251091e-17)
(1 -4.314613786e-19 1.566205593e-17)
(1 1.621743451e-16 -3.828299484e-16)
(1 -5.563701286e-16 -2.036295058e-16)
(1 -6.623203647e-16 -9.051516206e-17)
(1 -3.651483747e-16 -3.266731282e-16)
(1 -3.30141833e-16 -5.411179306e-17)
(1 -2.793691499e-16 -2.932070715e-17)
(1 -6.772964373e-17 -4.72707578e-16)
(1 -2.170465416e-16 1.950326945e-16)
(1 -2.103560715e-17 -4.664512476e-17)
(1 9.789568397e-17 -2.036435564e-16)
(1 1.549531165e-16 -2.825211674e-17)
(1 -3.548808942e-16 -1.46432928e-16)
(1 -5.364540293e-16 -2.416964198e-16)
(1 -6.073731959e-16 -3.112037787e-16)
(1 -4.568884612e-16 -1.409159648e-16)
(1 -4.830873103e-16 -6.816635021e-17)
(1 -3.807679255e-16 -3.408020738e-16)
(1 -3.247411417e-16 1.646783795e-16)
(1 -2.078034386e-16 -7.835517832e-17)
(1 -1.990326494e-16 -2.262680596e-16)
(1 1.405081922e-16 -3.800649904e-16)
(1 -2.345742141e-16 2.290737351e-16)
(1 -8.967071134e-17 9.086717594e-17)
(1 2.593391273e-17 -2.22190792e-16)
(1 1.036738567e-16 -3.310643007e-17)
(1 2.155199258e-16 -1.450248998e-16)
(1 -1.71165758e-16 -1.193075368e-16)
(1 -3.637062916e-16 -3.099940803e-16)
(1 -5.335283787e-16 -3.182324773e-16)
(1 -4.701337296e-16 -2.456228013e-16)
(1 -5.529381253e-16 -2.364199139e-16)
(1 -4.715053325e-16 -3.151719231e-16)
(1 -3.81962731e-16 1.373728015e-16)
(1 -2.86785598e-16 -1.606734279e-16)
(1 -4.988406636e-16 -1.030334444e-16)
(1 -3.601328576e-17 -3.980079047e-16)
(1 -3.142182309e-16 1.267239181e-16)
(1 -1.537023268e-16 1.997414216e-16)
(1 -9.483032616e-17 -7.920905018e-17)
(1 1.485511679e-16 -1.069935905e-16)
(1 1.750663862e-16 -9.539124846e-17)
(1 8.445855135e-17 2.009737785e-16)
(1 -2.242690283e-16 1.262334996e-16)
(1 -4.83037937e-17 -6.490653386e-17)
(1 1.211427039e-16 6.644772412e-17)
(1 2.488209313e-16 -1.040924167e-16)
(1 2.46934167e-16 8.620163667e-17)
(1 -2.771694374e-16 -4.206226203e-16)
(1 -1.05549197e-16 -2.73113724e-16)
(1 -3.184946193e-16 -3.652198501e-16)
(1 -4.968103883e-16 -2.836379151e-16)
(1 -4.63424983e-16 -3.795455471e-16)
(1 -3.830993628e-16 -3.162633541e-16)
(1 -4.832804913e-16 -1.031395735e-16)
(1 -3.163638362e-16 -2.321954753e-16)
(1 -4.685108767e-16 -6.841618603e-17)
(1 -2.968128079e-16 -2.591530518e-16)
(1 -4.036868553e-16 8.542111064e-17)
(1 -1.793418086e-16 1.228694671e-16)
(1 -3.003073183e-16 -6.940612155e-17)
(1 -1.556176964e-16 -1.419857724e-16)
(1 -4.096116607e-17 -1.73459661e-16)
(1 7.121421438e-17 3.12309624e-16)
(1 -1.719361617e-16 9.754837455e-17)
(1 -1.430919462e-16 7.033292577e-17)
(1 5.9264065e-17 1.287940905e-16)
(1 2.556426205e-16 -9.182545203e-17)
(1 1.27935554e-16 6.361125837e-17)
(1 -4.027167095e-18 8.579439646e-17)
(1 -2.596461629e-17 7.034988282e-17)
(1 -2.243288251e-16 4.148263664e-17)
(1 1.589354568e-16 -1.008605202e-16)
(1 -3.83057883e-17 1.424030771e-16)
(1 4.002789434e-16 -4.961579065e-17)
(1 7.298249817e-17 1.627970887e-17)
(1 -4.849067708e-16 -8.844492857e-16)
(1 -2.310027755e-16 -2.978916623e-16)
(1 -1.856072558e-16 -5.653384761e-16)
(1 -3.871887124e-16 -3.020195749e-16)
(1 -2.97069348e-16 -3.580575027e-16)
(1 -1.383897423e-16 -2.612204906e-16)
(1 -5.135626148e-16 -1.640292185e-16)
(1 -3.842252444e-16 -3.482533938e-16)
(1 -3.64342526e-16 -1.720564008e-16)
(1 -2.992896418e-16 -1.884380794e-16)
(1 -5.161629407e-16 -4.299667019e-17)
(1 -3.239096496e-16 -1.496963744e-16)
(1 -3.80601433e-16 -1.611983963e-16)
(1 -3.847820667e-16 -6.789163711e-17)
(1 -2.174641963e-16 -7.071723508e-17)
(1 -2.141011975e-16 2.716051892e-16)
(1 -2.600523353e-16 2.97273043e-17)
(1 -2.048929904e-16 1.04740372e-16)
(1 -4.517916464e-17 7.289220871e-17)
(1 1.557989444e-17 -1.583265218e-16)
(1 -2.07375199e-17 -8.005896131e-17)
(1 5.61429804e-17 1.452587795e-16)
(1 8.10208265e-17 1.660578095e-16)
(1 -3.603996013e-16 7.310407302e-17)
(1 -2.455742546e-17 -1.146163665e-17)
(1 -2.345053452e-17 -2.58779972e-17)
(1 2.068199575e-16 -1.267349461e-16)
(1 -9.108951717e-17 -1.16604663e-16)
(1 -1.766156955e-16 1.821637629e-16)
(1 -3.751092165e-17 6.598110532e-17)
(1 5.351958092e-17 7.29091293e-17)
(1 -8.128613751e-17 -7.536685933e-17)
(1 -1.935289946e-16 -1.266763881e-16)
(1 9.168259826e-17 -6.003870566e-17)
(1 8.224074725e-17 8.657197052e-18)
(1 2.362357904e-16 -1.869056721e-16)
(1 -5.282638188e-16 -8.651394565e-16)
(1 -5.621834445e-16 -5.902613973e-16)
(1 -2.297503803e-16 -8.215372159e-16)
(1 -4.133211872e-16 -3.786469436e-16)
(1 -2.103154732e-16 -3.862638094e-16)
(1 -9.599910118e-17 -2.431244718e-16)
(1 -4.892279409e-16 -2.077536073e-16)
(1 -3.733545751e-16 -3.680949304e-16)
(1 -9.28557974e-17 -2.532030906e-16)
(1 -2.390184522e-16 -1.04891791e-16)
(1 -4.293612117e-16 -1.652701461e-16)
(1 -4.430047668e-16 -2.398529945e-16)
(1 -3.562724318e-16 -1.963486277e-16)
(1 -3.644793315e-16 -1.695022506e-16)
(1 -3.290003763e-16 7.913595428e-17)
(1 -4.2197367e-16 1.537097473e-16)
(1 -2.802306355e-16 -5.213723239e-17)
(1 -3.073637675e-16 2.226294784e-16)
(1 -2.387967967e-17 -8.175182897e-17)
(1 -3.246549715e-16 -2.199076293e-16)
(1 -4.131157147e-16 -1.500001167e-16)
(1 -2.931622006e-17 1.529470278e-16)
(1 -1.437632248e-16 1.857232263e-16)
(1 -3.706961097e-16 1.171455678e-17)
(1 -8.918575975e-17 5.071433419e-17)
(1 -9.819276761e-17 -1.102643968e-16)
(1 -6.953900203e-17 -2.341939113e-16)
(1 -2.191171291e-16 -3.018248837e-16)
(1 -2.805641779e-16 2.55251965e-16)
(1 1.460653015e-18 -1.726025463e-18)
(1 -3.855351979e-17 9.374879664e-17)
(1 -1.541337374e-16 1.131667278e-16)
(1 -1.338373319e-16 -1.30443528e-16)
(1 3.335701685e-17 -1.431826688e-16)
(1 2.288801595e-17 -1.299686334e-17)
(1 2.519882172e-16 -4.345461169e-16)
(1 9.165881628e-17 2.294900389e-16)
(1 -2.224135224e-17 5.650574789e-17)
(1 -2.176516012e-17 -9.772506731e-17)
(1 -1.500859038e-16 5.350215303e-17)
(1 -7.547894653e-17 -2.372870313e-16)
(1 -2.23004846e-16 -9.204588567e-18)
(1 -6.281943136e-19 -2.145049121e-16)
(1 1.635895456e-16 -1.657051916e-18)
(1 2.642932275e-16 6.670438278e-18)
(1 -4.468596995e-16 -6.738619939e-16)
(1 -6.203725996e-16 -7.374348412e-16)
(1 -3.952793609e-16 -7.815941043e-16)
(1 -7.662880964e-16 -6.08407033e-16)
(1 -3.723070075e-16 -7.69693906e-16)
(1 -3.729278737e-16 -4.368379884e-16)
(1 -5.681012035e-16 -2.245925031e-16)
(1 -3.691601013e-16 -3.452272358e-16)
(1 -4.393152144e-17 -2.716654855e-16)
(1 -1.717828725e-16 -2.443564099e-16)
(1 -2.706504648e-16 -1.211264415e-16)
(1 -3.612163999e-16 -2.518559838e-16)
(1 -2.681627963e-16 -2.221427982e-16)
(1 -2.469049969e-16 -1.593872238e-16)
(1 -1.858032046e-16 -2.791820537e-17)
(1 -3.715239461e-16 2.243092485e-17)
(1 -2.663233298e-16 -1.372918741e-16)
(1 -3.144309893e-16 9.376053435e-17)
(1 -1.190755332e-16 -1.816769788e-16)
(1 -3.40964789e-16 -7.215183236e-17)
(1 -4.448606719e-16 -1.694233101e-16)
(1 -2.196989399e-16 2.394075017e-16)
(1 -1.511576257e-16 1.416207282e-16)
(1 -1.894178556e-16 7.414949019e-17)
(1 -1.054416649e-16 1.570856245e-16)
(1 -1.69354683e-16 -1.028530127e-16)
(1 -3.918839602e-16 -2.874615603e-16)
(1 -3.508412668e-16 -4.465895208e-16)
(1 -2.612108008e-16 1.986261383e-16)
(1 -1.106038067e-16 1.057466656e-16)
(1 -1.375596161e-16 2.607626775e-17)
(1 -3.800690631e-16 2.110186477e-16)
(1 -7.633946069e-17 -1.125005989e-16)
(1 2.114815692e-17 -2.032750193e-16)
(1 -1.267180785e-16 -1.786741969e-16)
(1 9.187274741e-17 -5.238649163e-16)
(1 8.66749982e-17 2.412196816e-16)
(1 -2.16694505e-16 1.073939374e-16)
(1 -2.342752196e-17 -1.992931888e-16)
(1 -2.000202807e-16 1.676784188e-16)
(1 -1.446003745e-16 -1.477486224e-16)
(1 -1.186109411e-16 -3.11292098e-17)
(1 6.624483447e-17 -1.720550002e-16)
(1 1.275646343e-16 -1.378464537e-16)
(1 2.355874498e-16 -8.259574146e-17)
(1 -5.135199177e-17 1.885215594e-16)
(1 9.583954639e-17 1.774802334e-16)
(1 -6.910692928e-17 -1.602263185e-16)
(1 -2.706825091e-16 -1.37049921e-16)
(1 -1.981287374e-17 -1.586087528e-16)
(1 -1.26627447e-16 -9.834419004e-18)
(1 -1.395734121e-16 -6.654873495e-17)
(1 3.151922052e-17 -2.77089109e-16)
(1 -2.611956369e-17 3.029848981e-17)
(1 2.047341762e-16 -7.372478303e-17)
(1 -4.090810672e-16 -5.250812202e-16)
(1 -6.192331981e-16 -7.075141997e-16)
(1 -4.654062694e-16 -6.739572106e-16)
(1 -7.779929352e-16 -7.289890534e-16)
(1 -5.003470294e-16 -8.568019356e-16)
(1 -6.259249697e-16 -6.818504579e-16)
(1 -8.108321627e-16 -2.820012419e-16)
(1 -5.31356228e-16 -6.884728438e-16)
(1 -4.592913885e-16 -4.945665426e-16)
(1 -2.32192164e-16 -7.394712787e-16)
(1 -2.615896813e-16 -6.475369356e-17)
(1 -3.551200783e-16 -2.706949766e-16)
(1 -2.730059617e-16 -2.094433083e-16)
(1 -1.684349352e-16 -1.28230572e-16)
(1 5.812759467e-17 -2.508040909e-16)
(1 -4.117930949e-16 2.818339033e-17)
(1 -1.017988157e-16 -1.62877098e-16)
(1 -2.856571467e-16 -9.176614015e-17)
(1 -2.261835335e-16 -2.346720589e-16)
(1 -2.371889825e-16 4.855742152e-18)
(1 -2.075284086e-16 -1.273076106e-16)
(1 -1.290658559e-16 1.14552071e-16)
(1 -1.348802171e-16 7.694177646e-18)
(1 -1.840619762e-16 1.678840034e-16)
(1 -7.174391608e-17 1.202995859e-16)
(1 -8.124954096e-17 4.727256557e-17)
(1 -4.283376811e-16 -8.063996487e-17)
(1 -2.461682805e-16 -3.412867682e-16)
(1 -3.308729977e-16 2.593233811e-16)
(1 -1.165230146e-16 1.631127683e-16)
(1 -2.014422464e-16 8.868886892e-17)
(1 -3.965552278e-16 1.306742807e-16)
(1 -8.187973746e-17 -1.183030091e-16)
(1 7.38373157e-17 -1.875543277e-16)
(1 -3.409618783e-16 -1.966968837e-16)
(1 -1.094158281e-16 -5.596974799e-16)
(1 5.022138775e-18 2.108278354e-16)
(1 -2.444290744e-16 2.400909639e-16)
(1 2.181381844e-17 2.296174388e-17)
(1 -1.278660628e-16 1.929979832e-16)
(1 -2.102807514e-16 -1.115975054e-16)
(1 -1.103724346e-16 -1.603612286e-16)
(1 -1.746902069e-17 -1.914765257e-16)
(1 3.967716585e-17 -2.610228788e-16)
(1 5.730061453e-17 -2.876712332e-16)
(1 5.890840618e-18 1.421061594e-16)
(1 -3.862686636e-17 1.239804419e-16)
(1 -1.725583427e-16 -2.073943871e-16)
(1 -2.9316546e-16 -1.668514983e-17)
(1 -1.75590693e-16 -1.339478981e-16)
(1 -1.494947912e-16 -1.43743424e-16)
(1 -1.562043361e-16 -8.584088404e-17)
(1 -1.850839796e-17 -3.751001856e-16)
(1 7.564650521e-17 -3.090905304e-16)
(1 4.010973845e-17 -1.025469886e-16)
(1 -1.729970944e-16 3.255199141e-16)
(1 3.491549538e-17 -1.041603572e-16)
(1 -8.220092884e-17 5.419461501e-17)
(1 1.152876506e-16 -1.696429921e-16)
(1 -2.549086196e-16 -1.360956261e-16)
(1 -6.351444802e-17 1.204195004e-16)
(1 5.861532554e-17 -1.157143296e-16)
(1 -1.270589089e-16 -1.870486584e-16)
(1 -2.203004432e-16 3.439866143e-17)
(1 1.993579047e-16 -2.428883752e-16)
(1 7.357143203e-17 -2.654406041e-17)
(1 -3.725875878e-16 -3.999646676e-16)
(1 -5.437849007e-16 -5.414432055e-16)
(1 -4.1453465e-16 -4.658525651e-16)
(1 -6.787447408e-16 -5.948200513e-16)
(1 -5.619130532e-16 -7.87880606e-16)
(1 -5.694647043e-16 -6.696400636e-16)
(1 -8.184191111e-16 -4.173510583e-16)
(1 -5.600626303e-16 -8.261309118e-16)
(1 -6.442358597e-16 -6.084139412e-16)
(1 -3.008985843e-16 -8.708499953e-16)
(1 -4.122864851e-16 -2.615080894e-16)
(1 -5.57965565e-16 -4.490480934e-16)
(1 -4.498633696e-16 -3.430685235e-16)
(1 -2.681951416e-16 -6.205861166e-16)
(1 -2.671309379e-16 -4.785259362e-16)
(1 -6.03195037e-16 8.33166237e-17)
(1 -2.943140567e-17 -1.293436304e-16)
(1 -3.498827025e-16 -2.079211337e-16)
(1 -2.845595513e-16 -3.393074778e-16)
(1 -1.403798227e-16 -1.739060239e-16)
(1 -8.987222664e-17 -2.077085218e-16)
(1 -3.889209408e-17 8.900002429e-17)
(1 -2.556534774e-16 -6.109383103e-17)
(1 -1.165987535e-16 1.145113577e-17)
(1 -1.235479898e-16 -8.000994246e-18)
(1 -7.943118158e-17 2.992095654e-18)
(1 -2.03188465e-16 -1.012292204e-16)
(1 -1.516242299e-16 -2.011703545e-16)
(1 -3.639151157e-16 -5.051156442e-17)
(1 -2.282238649e-16 4.02173546e-17)
(1 -2.372430503e-16 1.826380706e-16)
(1 -1.926031762e-16 4.005054926e-17)
(1 -9.559056496e-17 6.899764434e-20)
(1 -4.491605382e-17 -7.020699867e-17)
(1 -2.237847464e-16 -2.413574145e-16)
(1 -3.330863428e-16 -4.176765504e-16)
(1 -2.06561074e-16 2.572750521e-16)
(1 -3.449876413e-16 3.528644547e-16)
(1 7.686181272e-18 1.608387356e-16)
(1 -3.619467989e-17 2.682330653e-16)
(1 -1.019121555e-16 -1.92610902e-18)
(1 -1.499117414e-17 -1.696634479e-16)
(1 -3.771162498e-17 -2.466427683e-16)
(1 -1.997469222e-16 -3.742058747e-16)
(1 -1.213842199e-16 -5.379683265e-16)
(1 1.526540867e-16 1.293481297e-16)
(1 -7.582716562e-17 1.341843701e-16)
(1 -2.309529469e-16 -3.467174319e-19)
(1 -1.083936287e-16 9.036426885e-17)
(1 -2.560804226e-16 1.276630849e-17)
(1 -2.477354413e-16 -2.658424094e-16)
(1 -1.425350289e-16 -1.86719683e-16)
(1 -1.41820311e-18 -3.560901621e-16)
(1 4.669928767e-17 -3.169657453e-16)
(1 3.995039331e-17 -2.386248821e-16)
(1 -2.968021533e-16 2.632773669e-16)
(1 4.398791454e-17 -4.681494309e-17)
(1 -5.725422757e-17 -1.656000563e-16)
(1 -1.83672946e-16 9.038018032e-17)
(1 -9.079352455e-17 -1.115966524e-16)
(1 -1.416460691e-16 -1.29503874e-17)
(1 -1.341923044e-16 -1.243932441e-16)
(1 -7.838073593e-17 -2.713626603e-16)
(1 -6.193934915e-17 -1.730287222e-17)
(1 1.773199175e-16 -2.14643206e-16)
(1 9.410630139e-17 -1.969857552e-16)
(1 -8.140026259e-17 2.032516574e-16)
(1 -9.505670003e-17 3.791448785e-17)
(1 -2.085498389e-16 -1.761644249e-16)
(1 8.949579272e-17 -1.80189274e-16)
(1 -1.204313817e-16 -3.186364189e-17)
(1 -1.484501978e-16 1.744614481e-16)
(1 1.69121884e-16 -1.208477584e-16)
(1 -1.814622127e-16 -2.009741333e-16)
(1 -3.706804663e-17 -2.071281873e-16)
(1 -1.546421866e-16 6.803086477e-18)
(1 2.659205336e-17 -4.895992629e-17)
(1 2.118719331e-16 -8.431971959e-17)
(1 -5.934991713e-16 -4.491798121e-16)
(1 -4.975564051e-16 -3.7357256e-16)
(1 -3.492916601e-16 -1.669668318e-16)
(1 -5.25358877e-16 -5.306781856e-16)
(1 -5.032654286e-16 -5.887699821e-16)
(1 -5.091400165e-16 -4.225160777e-16)
(1 -5.589809901e-16 -4.846721171e-16)
(1 -5.423237583e-16 -6.010651014e-16)
(1 -5.247914881e-16 -5.71202362e-16)
(1 -3.576831141e-16 -7.125753987e-16)
(1 -5.379592903e-16 -5.539295764e-16)
(1 -6.633938753e-16 -5.866926409e-16)
(1 -5.370912666e-16 -4.957501307e-16)
(1 -3.126510531e-16 -7.761473582e-16)
(1 -4.749270216e-16 -4.72859112e-16)
(1 -6.985153077e-16 -2.203361927e-16)
(1 -4.260341026e-16 -3.208719787e-16)
(1 -4.691561128e-16 -3.947581039e-16)
(1 -4.52450974e-16 -5.110730057e-16)
(1 -2.256454825e-16 -4.257681099e-16)
(1 -2.172930501e-16 -4.297341478e-16)
(1 -1.610212998e-16 1.354536069e-16)
(1 -4.432337988e-16 -1.521766904e-16)
(1 -1.196568556e-16 -1.042182963e-16)
(1 -2.387191463e-16 -7.706572069e-17)
(1 -2.359450095e-16 -1.823514297e-16)
(1 -5.854538498e-17 -3.214550691e-16)
(1 -6.11256628e-17 -1.981737604e-16)
(1 -4.760684741e-16 -2.315009315e-16)
(1 -2.786114594e-16 9.376668761e-17)
(1 -1.966198066e-16 -8.065992861e-17)
(1 -1.106395771e-16 -1.976282759e-17)
(1 -5.021897785e-17 9.753296683e-18)
(1 -2.135055809e-16 -7.530702459e-17)
(1 -1.56379007e-16 -2.491122296e-16)
(1 -2.463822437e-16 -3.120005944e-16)
(1 -3.789053081e-16 1.369389825e-16)
(1 -3.886577473e-16 -5.376399739e-17)
(1 -1.826911972e-16 1.427004657e-16)
(1 -1.715210275e-16 1.209866649e-16)
(1 -1.579499495e-16 4.715886526e-17)
(1 -7.368950597e-17 1.116437502e-18)
(1 2.258314109e-17 -2.20508619e-16)
(1 -2.7866968e-16 -3.758978592e-16)
(1 -1.677053155e-16 -7.076224642e-16)
(1 5.612374329e-17 2.414370257e-16)
(1 -1.867680789e-16 2.049364931e-16)
(1 -2.911203528e-16 7.170234931e-17)
(1 -1.39548432e-16 1.000486127e-16)
(1 -2.116505653e-16 5.856131413e-17)
(1 -2.406943967e-16 -2.316302187e-16)
(1 -1.076264812e-16 -3.571863826e-16)
(1 -8.588866726e-17 -3.701417335e-16)
(1 -1.254276372e-16 -2.690734835e-16)
(1 1.472937668e-16 -3.500768032e-16)
(1 -2.371590092e-16 7.384546228e-17)
(1 2.441442398e-17 5.760674728e-17)
(1 -1.829622512e-16 -7.616633878e-17)
(1 -3.000198812e-16 7.62522873e-17)
(1 -1.056172392e-16 -1.577835297e-16)
(1 -1.548681886e-16 -1.325901019e-16)
(1 -2.133019647e-16 -1.332109401e-16)
(1 -5.530265025e-17 -2.653190415e-16)
(1 6.800739392e-18 -2.282476188e-16)
(1 1.000178335e-16 -2.056036969e-16)
(1 7.708940057e-17 -2.475580109e-16)
(1 -1.210248636e-16 2.325988907e-16)
(1 -2.126515082e-16 -3.001333797e-17)
(1 -1.245633572e-16 -7.812650698e-17)
(1 7.113499904e-17 -4.240350305e-17)
(1 -2.176914274e-16 4.337589608e-17)
(1 -1.211197069e-16 -1.846642932e-17)
(1 -4.24860492e-17 -1.307021291e-16)
(1 -2.150988738e-16 -2.107349927e-16)
(1 2.453765492e-17 -2.735012939e-16)
(1 1.96564865e-17 -1.196539533e-16)
(1 8.208396166e-17 -9.689654837e-17)
(1 1.582860199e-16 -1.71134692e-16)
(1 1.651989437e-17 3.761004851e-16)
(1 -6.472019916e-17 9.592508914e-18)
(1 -4.198288961e-17 -1.032439448e-16)
(1 -1.008619216e-16 2.341386707e-16)
(1 2.850222693e-16 -8.800066002e-17)
(1 1.38557276e-16 1.707342394e-16)
(1 -1.752619268e-16 5.732538832e-17)
(1 1.082756743e-16 -3.754990074e-16)
(1 -9.142098409e-17 -2.742784541e-17)
(1 -2.009919838e-16 9.720278019e-18)
(1 2.990743233e-17 -2.124555143e-16)
(1 2.44235932e-17 7.130169575e-17)
(1 2.667463055e-16 -4.679279808e-17)
(1 -1.261585289e-15 -7.930779715e-16)
(1 -6.942336572e-16 -2.849026017e-16)
(1 -4.21430574e-16 -2.275702918e-16)
(1 -3.480401467e-16 -3.142005165e-16)
(1 -4.03767679e-16 -3.480829743e-16)
(1 -6.324704481e-16 -1.857297073e-16)
(1 -3.603181037e-16 -4.647828107e-16)
(1 -4.632932469e-16 -4.870299998e-16)
(1 -5.40623592e-16 -4.068553408e-16)
(1 -3.801727138e-16 -5.15179783e-16)
(1 -4.574658613e-16 -6.336494662e-16)
(1 -6.223471948e-16 -5.756940233e-16)
(1 -5.098759115e-16 -4.218428102e-16)
(1 -3.189803384e-16 -6.650184507e-16)
(1 -4.743529039e-16 -5.294365566e-16)
(1 -7.631867175e-16 -5.370695819e-16)
(1 -6.709523954e-16 -5.4436106e-16)
(1 -5.51902145e-16 -4.498591518e-16)
(1 -4.001459226e-16 -4.829654948e-16)
(1 -2.594703311e-16 -5.00824348e-16)
(1 -3.537626263e-16 -4.646586959e-16)
(1 -3.263974261e-16 -7.176173564e-17)
(1 -5.658030009e-16 -2.790949866e-16)
(1 -2.88013296e-16 -2.37419398e-16)
(1 -4.217540429e-16 -2.643158697e-16)
(1 -1.761532812e-16 -3.081879695e-16)
(1 -1.026203254e-16 -2.879053423e-16)
(1 -1.03234528e-16 -3.666170366e-16)
(1 -3.312704859e-16 -1.724918998e-16)
(1 -3.694147305e-16 1.975287954e-16)
(1 -3.160576131e-16 -2.980647013e-16)
(1 -1.080244323e-16 -8.925212468e-17)
(1 -1.341939519e-16 -1.820371506e-16)
(1 -3.06657826e-16 -1.929637837e-16)
(1 -9.854847745e-17 -2.2656013e-16)
(1 -1.00512502e-16 -9.401507461e-17)
(1 -6.366689484e-16 2.739527453e-16)
(1 -2.849786404e-16 -3.585547075e-16)
(1 -2.957442875e-16 5.389329658e-17)
(1 -2.640001536e-16 -1.136889329e-16)
(1 -2.206065686e-16 3.529863663e-17)
(1 -6.245859887e-17 -1.183876136e-16)
(1 -9.17970395e-17 -2.272034087e-16)
(1 -2.409574744e-16 -3.39467601e-16)
(1 -1.291220087e-16 -5.110635537e-16)
(1 -2.157611527e-16 1.182387448e-16)
(1 -2.362385735e-16 1.338531842e-16)
(1 -2.604093426e-16 1.513969407e-16)
(1 -2.448846078e-16 1.139948295e-16)
(1 -1.636709735e-16 -2.546061085e-17)
(1 -2.375433582e-16 -9.240480817e-17)
(1 -1.156595539e-16 -2.579562055e-16)
(1 -7.454469578e-17 -3.991929573e-16)
(1 -1.884933171e-16 -2.808925967e-16)
(1 1.365649122e-16 -3.749615769e-16)
(1 -1.359600911e-16 1.090547485e-16)
(1 -1.027759098e-16 2.401790513e-16)
(1 -3.239063971e-16 1.466713987e-16)
(1 -3.690128376e-16 -5.741135166e-17)
(1 -3.034757859e-16 -2.119300999e-16)
(1 -2.661377856e-16 -2.696374662e-16)
(1 -2.204255086e-16 -3.593011528e-16)
(1 -9.723850363e-17 -3.172423141e-16)
(1 1.852514345e-17 -3.418841371e-16)
(1 1.724835237e-17 -1.694404364e-16)
(1 6.760257139e-17 -2.271536054e-16)
(1 -2.430744553e-16 1.570072993e-16)
(1 -2.189009622e-16 -1.742964519e-16)
(1 -1.535522908e-16 6.495149602e-17)
(1 -2.398630453e-17 6.400203675e-17)
(1 -2.630268494e-16 3.717760936e-17)
(1 -9.265170863e-17 -1.989346326e-16)
(1 -1.772524218e-16 -1.370318776e-16)
(1 -2.030661392e-16 -2.053533757e-16)
(1 -1.550556811e-18 -2.575836399e-16)
(1 5.057865023e-17 -1.894209695e-16)
(1 1.090477752e-16 -1.330657735e-16)
(1 1.827864913e-16 -1.564914603e-16)
(1 7.988142843e-17 1.656537381e-16)
(1 -2.183756861e-16 1.422535209e-16)
(1 -1.241315992e-16 -7.514160205e-17)
(1 1.214585534e-16 1.878446109e-16)
(1 4.655733275e-17 -3.001760513e-19)
(1 -5.392470782e-17 -1.508174246e-17)
(1 -1.024764064e-16 -9.045175609e-17)
(1 -1.059359393e-16 -2.45480926e-16)
(1 -1.329222977e-16 -1.210632762e-16)
(1 -1.630578748e-16 -1.246560623e-16)
(1 5.435831861e-17 -2.636802649e-16)
(1 1.101118118e-16 -3.387745597e-17)
(1 2.493514724e-16 -1.280639926e-16)
(1 2.376791483e-16 4.259190429e-17)
(1 -1.726744392e-16 3.283949444e-16)
(1 1.692286824e-16 1.075851466e-18)
(1 6.896194793e-17 1.304660714e-16)
(1 8.962083828e-17 -1.20046847e-16)
(1 -3.330719094e-17 -7.288054694e-18)
(1 -2.618040843e-16 -1.689356589e-17)
(1 -5.658458698e-17 -1.632519161e-16)
(1 1.861503354e-16 -1.23295409e-16)
(1 -6.494619426e-17 -1.417514804e-17)
(1 -4.640573149e-17 -2.138779313e-17)
(1 -1.54757438e-16 7.438624679e-17)
(1 1.834031483e-16 2.016293716e-17)
(1 2.908071282e-16 2.630942133e-16)
(1 -1.577151455e-15 -1.049583859e-15)
(1 -1.093868012e-15 -2.634130569e-16)
(1 -7.934111894e-16 -9.697369109e-16)
(1 -4.940425286e-16 -1.377910331e-16)
(1 -4.030750815e-16 -2.303306428e-16)
(1 -6.594166602e-16 -2.973339803e-16)
(1 -2.097977597e-16 -4.37100768e-16)
(1 -4.135166548e-16 -3.269108504e-16)
(1 -6.935740899e-16 -3.209753718e-16)
(1 -5.061836168e-16 -4.82462277e-16)
(1 -3.871875645e-16 -6.268295389e-16)
(1 -5.462705281e-16 -5.706137016e-16)
(1 -5.027021806e-16 -3.492351768e-16)
(1 -3.88081555e-16 -6.078903598e-16)
(1 -5.710163701e-16 -5.613698987e-16)
(1 -6.409766722e-16 -5.698311417e-16)
(1 -5.587367101e-16 -6.023690902e-16)
(1 -5.495761275e-16 -4.158792216e-16)
(1 -3.855249216e-16 -4.855912688e-16)
(1 -2.925088558e-16 -4.371220618e-16)
(1 -2.639837216e-16 -5.123319369e-16)
(1 -5.206897182e-16 -2.000368196e-16)
(1 -5.115926617e-16 -4.721999651e-16)
(1 -4.400053951e-16 -3.225482618e-16)
(1 -4.989990471e-16 -4.592112215e-16)
(1 -2.075710537e-16 -3.540380908e-16)
(1 -2.314857276e-16 -2.879820783e-16)
(1 -3.186436405e-16 -3.884950326e-16)
(1 -3.340573583e-16 -1.085754196e-16)
(1 -1.934513724e-16 -1.327193209e-16)
(1 -4.324866312e-16 -1.723983897e-16)
(1 -1.876862739e-16 -2.364603509e-16)
(1 -2.34176282e-16 -2.217875464e-16)
(1 -2.376676026e-16 -2.917454323e-16)
(1 -1.036656709e-16 -3.317905548e-16)
(1 -1.578528178e-16 -1.001072696e-17)
(1 -5.926548599e-16 2.218005524e-16)
(1 -2.717823495e-16 -2.485870989e-16)
(1 -2.60503137e-16 6.103143869e-17)
(1 -2.677340201e-16 -1.632396234e-16)
(1 -2.100928706e-16 -1.254993257e-19)
(1 -1.144315724e-16 -3.379727191e-16)
(1 -2.440467603e-16 -2.400267925e-16)
(1 -7.016495876e-17 -2.039955358e-16)
(1 -1.335816876e-16 -2.009437868e-16)
(1 -2.871200296e-16 9.366020823e-17)
(1 -3.444142414e-16 2.453544211e-16)
(1 -3.174305878e-16 -8.960789643e-17)
(1 -2.650931409e-16 -3.469614231e-17)
(1 -2.295229139e-16 -1.679345136e-16)
(1 -2.901716215e-16 -9.375188799e-17)
(1 -7.234944063e-17 -1.89832459e-16)
(1 -1.569082263e-16 -2.440126781e-16)
(1 -8.196387946e-17 -2.687898774e-16)
(1 4.04340364e-17 -2.65452579e-16)
(1 -2.310272723e-16 1.617330256e-16)
(1 -1.942313708e-16 1.301945427e-16)
(1 -2.108488253e-16 1.902397554e-16)
(1 -2.979186642e-16 -8.620834028e-18)
(1 -3.375923444e-16 -4.24537819e-17)
(1 -2.728415021e-16 -1.348510522e-16)
(1 -2.983312259e-16 -3.568464492e-16)
(1 -2.086185773e-16 -3.688645293e-16)
(1 -1.020391996e-18 -4.526194166e-16)
(1 -1.729488903e-17 -2.383873546e-16)
(1 -2.947130676e-18 -2.856423478e-16)
(1 -1.895413367e-16 2.344984688e-16)
(1 -1.916977315e-16 -6.633713662e-17)
(1 -2.103496074e-16 2.042734165e-16)
(1 -7.112245886e-17 1.08406833e-16)
(1 -2.710557534e-16 2.42095487e-17)
(1 -1.715745797e-16 -1.836230315e-16)
(1 -1.631863267e-16 -2.442401197e-16)
(1 -1.285967085e-16 -2.052273111e-16)
(1 3.686910301e-17 -2.338884192e-16)
(1 -6.507238462e-17 -1.555207641e-16)
(1 6.328121583e-17 -1.881743023e-16)
(1 2.101312388e-16 -1.265036668e-16)
(1 -2.631447472e-17 -1.409804537e-17)
(1 -3.139370252e-16 1.045775364e-16)
(1 -1.989879922e-16 -2.502062445e-17)
(1 3.670524402e-17 1.095145313e-16)
(1 -1.406978088e-16 -1.84907077e-17)
(1 -1.493321016e-16 -1.224197394e-16)
(1 -8.761347595e-17 -1.955276276e-16)
(1 -2.242339248e-16 -1.593473492e-16)
(1 -1.081504114e-16 -1.4476431e-16)
(1 3.80522869e-17 -1.227793645e-16)
(1 1.037337045e-16 -1.869111172e-16)
(1 1.739558783e-16 -1.233552347e-17)
(1 2.645790265e-16 -2.251523773e-17)
(1 -3.708446002e-18 8.412493649e-17)
(1 -5.460748318e-17 1.533583606e-16)
(1 5.36063282e-17 5.873889308e-17)
(1 -7.010185688e-17 5.346161407e-17)
(1 -6.304663899e-17 -1.634064905e-16)
(1 -1.079618965e-16 -7.668538297e-17)
(1 -2.747900431e-16 -7.881957049e-17)
(1 -6.44202739e-17 -1.233284266e-16)
(1 5.427451076e-18 -1.242012228e-16)
(1 -8.331855799e-17 -1.094378415e-16)
(1 3.273118981e-17 -8.949205453e-17)
(1 6.142561642e-19 2.552166491e-17)
(1 2.716861056e-16 2.630666457e-17)
(1 3.21574633e-16 2.149301351e-16)
(1 2.460669617e-17 -1.134548322e-16)
(1 -1.940291095e-16 1.47988926e-16)
(1 1.596014268e-16 -1.474650664e-16)
(1 -1.235185564e-16 -1.16227157e-17)
(1 -2.886930623e-16 -1.230056491e-16)
(1 -1.395069847e-16 -1.479752108e-16)
(1 -1.217013178e-17 -2.304484858e-16)
(1 -1.523877954e-16 -1.632933231e-16)
(1 -4.615692888e-18 7.791609859e-17)
(1 2.108349376e-16 -1.052574407e-17)
(1 -1.08019281e-16 5.079337779e-17)
(1 5.712769242e-17 9.632833765e-17)
(1 2.304545992e-17 -2.602102873e-17)
(1 3.700254246e-17 -4.393215907e-17)
(1 -6.234698902e-17 2.579237755e-16)
(1 -1.589337401e-15 -1.302061838e-15)
(1 -1.233832297e-15 -4.075846201e-16)
(1 -9.801672866e-16 -1.259990749e-15)
(1 -7.00187022e-16 -1.674484884e-16)
(1 -6.816007893e-16 -4.04724335e-16)
(1 -6.707735329e-16 -7.251878766e-16)
(1 -2.322670288e-16 -2.115391596e-16)
(1 -4.425321475e-16 -1.86868833e-16)
(1 -6.653761103e-16 -3.722385175e-16)
(1 -5.147596338e-16 -5.266593158e-16)
(1 -4.139278388e-16 -6.014044151e-16)
(1 -4.969434652e-16 -5.360445591e-16)
(1 -5.021986983e-16 -3.22335337e-16)
(1 -5.452498992e-16 -5.432258771e-16)
(1 -6.844085429e-16 -5.650959405e-16)
(1 -5.09585656e-16 -5.558530233e-16)
(1 -4.591396686e-16 -5.548533565e-16)
(1 -4.335950094e-16 -3.538379305e-16)
(1 -3.933313156e-16 -4.702349967e-16)
(1 -4.489501954e-16 -4.865027064e-16)
(1 -2.952058241e-16 -5.929069921e-16)
(1 -5.106360533e-16 -3.539077924e-16)
(1 -4.379459663e-16 -5.614961074e-16)
(1 -4.504439985e-16 -3.502147307e-16)
(1 -5.623946267e-16 -5.869629359e-16)
(1 -4.262389583e-16 -3.951634706e-16)
(1 -1.956658599e-16 -4.123841595e-16)
(1 -3.51712104e-16 -3.213690981e-16)
(1 -5.793008832e-16 -1.764857301e-16)
(1 -1.947121624e-16 -2.611152961e-16)
(1 -4.675124948e-16 -1.558046512e-16)
(1 -4.182651365e-16 -4.573618196e-16)
(1 -5.127658865e-16 -3.893282258e-16)
(1 -2.650900011e-16 -4.495737317e-16)
(1 -2.369965438e-16 -3.525928563e-16)
(1 -3.157485148e-16 -1.219845885e-16)
(1 -4.615333251e-16 1.07358286e-16)
(1 -1.391481012e-16 -1.691003803e-16)
(1 -2.027105618e-16 3.821908899e-18)
(1 -3.38289572e-16 -1.393429067e-16)
(1 -1.773761077e-16 -4.292232475e-17)
(1 -1.747554115e-16 -4.186641225e-16)
(1 -2.941481554e-16 -1.887331771e-16)
(1 8.373469451e-17 -1.926073779e-16)
(1 -2.865023728e-16 -3.08577265e-17)
(1 -3.150271757e-16 1.62795407e-16)
(1 -2.766898256e-16 2.481569931e-16)
(1 -2.535281877e-16 -2.065681833e-16)
(1 -2.971263886e-16 -6.839865836e-17)
(1 -2.521349402e-16 -2.045677294e-16)
(1 -1.387684994e-16 -1.300296073e-16)
(1 -2.291161395e-17 -8.586828119e-17)
(1 -1.610171627e-16 -1.023842465e-16)
(1 -1.086598131e-16 -1.444812005e-16)
(1 8.048704876e-18 -1.810428474e-16)
(1 -3.883049036e-16 2.559551783e-16)
(1 -3.394680186e-16 1.214574605e-16)
(1 -1.95046975e-16 7.750028487e-17)
(1 -2.75952627e-16 -4.979409503e-17)
(1 -2.36090841e-16 7.499877757e-17)
(1 -2.24231274e-16 -2.941457797e-17)
(1 -1.323208573e-16 -2.495086755e-16)
(1 -9.057042313e-17 -3.203034671e-16)
(1 -8.70668448e-17 -3.029221658e-16)
(1 -4.517723168e-17 -2.131631899e-16)
(1 -1.866352152e-17 -2.040878102e-16)
(1 -1.089688172e-16 2.93478231e-16)
(1 -1.012772701e-16 1.27131473e-16)
(1 -2.335312598e-16 2.590805432e-16)
(1 -9.245202426e-17 4.24331787e-17)
(1 -3.245107901e-16 4.130201225e-17)
(1 -1.824340806e-16 -1.498236572e-16)
(1 -2.263879529e-16 -1.608270792e-16)
(1 -1.186846253e-16 -2.272758797e-16)
(1 3.318313738e-17 -2.982478372e-16)
(1 -9.178274953e-17 -1.861974732e-16)
(1 1.685567092e-18 -2.172622557e-16)
(1 2.048285964e-16 -1.381020894e-16)
(1 -3.091766868e-17 3.922713615e-17)
(1 -2.472407898e-16 1.463130765e-16)
(1 -2.295487185e-16 6.882152346e-17)
(1 -1.348864266e-16 6.838520953e-17)
(1 -2.042840245e-16 -7.987069042e-17)
(1 -2.331600004e-16 -1.005416389e-16)
(1 -1.335594147e-16 -2.427567064e-16)
(1 -1.845131786e-16 -2.53107289e-16)
(1 -1.322087292e-16 -1.884620387e-16)
(1 7.07381956e-17 -1.406420945e-16)
(1 3.006218983e-17 -9.86593088e-17)
(1 1.477113863e-16 2.501518954e-17)
(1 2.634942971e-16 -1.085870279e-17)
(1 -2.774818902e-16 1.238502264e-16)
(1 -3.089335577e-17 2.824003115e-17)
(1 -1.80427506e-17 8.612866864e-17)
(1 -2.241627285e-16 1.45564827e-16)
(1 -8.675695339e-17 -1.743073032e-16)
(1 -2.220142583e-16 -6.405219208e-17)
(1 -1.576985506e-16 -1.116392819e-16)
(1 -6.629662614e-17 -1.536067866e-16)