/*--------------------------------*- C++ -*----------------------------------*\
| =========                 |                                                 |
| \\      /  F ield         | OpenFOAM: The Open Source CFD Toolbox           |
|  \\    /   O peration     | Version:  2212                                  |
|   \\  /    A nd           | Website:  www.openfoam.com                      |
|    \\/     M anipulation  |                                                 |
\*---------------------------------------------------------------------------*/
FoamFile
{
    version     2.0;
    format      ascii;
    arch        "LSB;label=32;scalar=64";
    class       volScalarField;
    location    "0.8";
    object      p;
}
// * * * * * * * * * * * * * * * * * * * * * * * * * * * * * * * * * * * * * //

dimensions      [0 2 -2 0 0 0 0];

internalField   nonuniform List<scalar> 
42875
(
-2.252958532e-15
-3.101635072e-15
-2.332499447e-15
-2.392726923e-15
-2.252800203e-15
-2.434312091e-15
-2.559637068e-15
-1.566047489e-15
-2.000228344e-15
-1.681456498e-15
-2.004459162e-15
-2.264744517e-15
-2.09383341e-15
-2.02581171e-15
-1.898797553e-15
-2.249053175e-15
-1.298249847e-15
-1.68218027e-15
-1.693263402e-15
-1.46476071e-15
-2.476042384e-15
-2.038367727e-15
-1.804237017e-15
-2.454492236e-15
-2.041248751e-15
-2.307367588e-15
-1.439397318e-15
-1.476904086e-15
-1.694189466e-15
-1.432965703e-15
-1.492604342e-15
-1.771324929e-15
-1.597263505e-15
-1.493204933e-15
-1.251576645e-15
-2.900617248e-15
-1.9951494e-15
-2.29316088e-15
-1.428474199e-15
-2.041860216e-15
-2.007752818e-15
-2.278929044e-15
-2.075225182e-15
-1.901781298e-15
-2.263811853e-15
-1.657780036e-15
-1.537843497e-15
-1.710365167e-15
-1.407619126e-15
-1.469055262e-15
-1.486242626e-15
-1.527786012e-15
-1.731192768e-15
-1.169005175e-15
-1.731682133e-15
-1.416993491e-15
-3.156697957e-15
-2.664061048e-15
-2.587877717e-15
-2.513269016e-15
-2.363503886e-15
-2.46100443e-15
-1.826657248e-15
-1.837606414e-15
-2.058178647e-15
-2.40649977e-15
-1.524347462e-15
-1.563714148e-15
-1.892293695e-15
-1.802527848e-15
-2.319138022e-15
-1.428610016e-15
-1.53230428e-15
-1.217182577e-15
-1.614843437e-15
-1.420212833e-15
-1.673485125e-15
-2.707152258e-15
-1.392006059e-15
-1.450769441e-15
-1.539544357e-15
-1.761502749e-15
-1.652772407e-15
-2.165565804e-15
-2.151901998e-15
-2.675955887e-15
-2.768733491e-15
-2.520354256e-15
-2.402229426e-15
-2.931711042e-15
-2.109071242e-15
-2.379454845e-15
-2.504940086e-15
-2.73387284e-15
-1.785215041e-15
-1.77123764e-15
-1.905779303e-15
-2.271139823e-15
-2.452231928e-15
-1.587271285e-15
-1.567051051e-15
-1.463479022e-15
-1.665067722e-15
-1.664384862e-15
-1.97184127e-15
-1.764914658e-15
-1.468845779e-15
-1.480741856e-15
-1.378814296e-15
-1.637693492e-15
-1.558505858e-15
-1.747233772e-15
-1.441252982e-15
-1.834445377e-15
-1.723519757e-15
-1.871797001e-15
-1.54734686e-15
-1.640845537e-15
-1.916721504e-15
-1.430793539e-15
-1.630693822e-15
-1.888147878e-15
-1.950439099e-15
-2.769051565e-15
-2.310669355e-15
-2.507076007e-15
-2.020402069e-15
-2.284202682e-15
-2.366988978e-15
-2.257766501e-15
-2.1431751e-15
-1.988834524e-15
-2.325567273e-15
-2.302864408e-15
-2.347092292e-15
-1.639398297e-15
-1.435651047e-15
-1.76914905e-15
-1.996547603e-15
-2.26491835e-15
-2.471897935e-15
-1.655972714e-15
-1.544804746e-15
-1.558286861e-15
-1.582463189e-15
-1.570260417e-15
-1.529574873e-15
-1.453898144e-15
-1.59706023e-15
-1.665255506e-15
-1.150819085e-15
-1.299008049e-15
-1.551322808e-15
-1.220404582e-15
-1.573160797e-15
-1.484329926e-15
-1.117723629e-15
-1.41808516e-15
-1.987841569e-15
-1.556443588e-15
-1.352226103e-15
-1.532124528e-15
-2.038564703e-15
-2.153807197e-15
-9.967528369e-16
-7.06215617e-16
-1.485148254e-15
-1.815167595e-15
-1.847835735e-15
-1.768696466e-15
-1.828789092e-15
-2.091261717e-15
-2.292851636e-15
-2.008671901e-15
-1.96089487e-15
-1.85493248e-15
-2.023015386e-15
-2.361751512e-15
-2.30874632e-15
-1.732303949e-15
-1.787075464e-15
-1.373702428e-15
-2.102924183e-15
-2.243002541e-15
-2.209990508e-15
-2.178447161e-15
-8.598204913e-16
-1.645432476e-15
-1.594729103e-15
-2.161391423e-15
-2.068564859e-15
-1.889243361e-15
-1.271254786e-15
-1.729211057e-15
-1.864335429e-15
-1.189212933e-15
-1.414967593e-15
-1.529484631e-15
-1.468429433e-15
-1.222863495e-15
-1.240793403e-15
-1.706842191e-15
-1.690183395e-15
-1.367832152e-15
-1.455236318e-15
-1.579829252e-15
-1.351734099e-15
-1.330348189e-15
-1.217677547e-15
-8.889751341e-16
-1.787339551e-15
-1.686365165e-15
-1.518647896e-15
-1.33389778e-15
-1.398039749e-15
-1.444770088e-15
-1.67641408e-15
-1.467869385e-15
-1.49663622e-15
-1.247732614e-15
-1.309016004e-15
-7.106034033e-16
-1.070890603e-15
-1.212215511e-15
-1.566313293e-15
-2.293832254e-15
-1.680031989e-15
-1.907601533e-15
-1.63952732e-15
-1.743656544e-15
-2.237710501e-15
-1.881712441e-15
-2.151235047e-15
-1.874887207e-15
-1.763680693e-15
-2.101808467e-15
-1.991079138e-15
-2.026338688e-15
-2.15602504e-15
-1.806584644e-15
-1.733178851e-15
-1.338466466e-15
-1.416688332e-15
-1.59176505e-15
-1.805250614e-15
-2.053986867e-15
-1.915854927e-15
-1.816358093e-15
-1.399490696e-15
-9.383637107e-16
-1.577851242e-15
-1.585696285e-15
-1.648084767e-15
-1.941180555e-15
-1.180735944e-15
-1.544089483e-15
-1.70241703e-15
-1.806637262e-15
-1.242802729e-15
-1.156753723e-15
-1.439424075e-15
-1.502088151e-15
-1.192807012e-15
-1.114853805e-15
-1.514065149e-15
-2.043943842e-15
-1.709209746e-15
-1.188037968e-15
-1.278983462e-15
-9.709696368e-16
-1.198005454e-15
-1.61432286e-15
-1.551379911e-15
-7.63740545e-16
-6.011503217e-16
-1.604277769e-15
-2.384305258e-15
-1.803963987e-15
-1.196207668e-15
-1.731433912e-15
-1.380284817e-15
-1.761878367e-15
-1.435346152e-15
-1.241293675e-15
-1.249646175e-15
-1.069651781e-15
-2.289033125e-15
-1.483524573e-15
-1.239000838e-15
-7.49306455e-16
-1.32461535e-15
-1.687025806e-15
-1.203926767e-15
-1.721555296e-15
-1.877836848e-15
-2.014497747e-15
-1.784887794e-15
-1.730755287e-15
-1.623565786e-15
-1.70371424e-15
-1.700051352e-15
-1.701409363e-15
-2.027769426e-15
-1.911445384e-15
-2.123646775e-15
-1.601156181e-15
-1.432918182e-15
-1.644139532e-15
-1.531718273e-15
-2.060902147e-15
-1.664180827e-15
-1.949641554e-15
-1.949842984e-15
-2.296097003e-15
-1.955995464e-15
-1.228209264e-15
-1.608777008e-15
-1.352040585e-15
-1.800694812e-15
-2.436228422e-15
-1.81767935e-15
-1.940994742e-15
-1.245192581e-15
-1.460030661e-15
-7.015647078e-16
-1.669906186e-15
-1.435320611e-15
-1.442092863e-15
-1.492668545e-15
-1.404463249e-15
-1.700792556e-15
-1.6055277e-15
-1.581426838e-15
-1.322074789e-15
-1.220531914e-15
-9.766173706e-16
-1.572683785e-15
-1.345943044e-15
-1.503824759e-15
-1.45215974e-15
-9.1096062e-16
-2.174878066e-15
-1.597245869e-15
-8.291240271e-16
-1.439733772e-15
-1.100774362e-15
-9.323248309e-16
-1.649858974e-15
-1.560525411e-15
-1.315315034e-15
-8.975584364e-16
-4.076149949e-16
-1.353097558e-15
-2.177265258e-15
-1.433228436e-15
-1.392555172e-15
-1.376813145e-15
-1.286808745e-15
-1.840696977e-15
-1.116679346e-15
-1.354899422e-15
-1.652818991e-15
-9.544453582e-16
-5.948142748e-16
-2.208078447e-15
-1.807066731e-15
-2.133480098e-15
-1.546865423e-15
-1.454364361e-15
-1.663065083e-15
-1.113133701e-15
-1.331600505e-15
-1.576808315e-15
-1.708092748e-15
-1.53666167e-15
-1.251053789e-15
-1.640822674e-15
-1.728692406e-15
-2.003535874e-15
-1.653891552e-15
-1.611191882e-15
-1.516789476e-15
-1.671493654e-15
-1.508331272e-15
-1.581640188e-15
-1.624891812e-15
-1.623406885e-15
-2.199984786e-15
-1.727152809e-15
-1.641078966e-15
-1.573624586e-15
-1.552375943e-15
-2.159640364e-15
-1.350648263e-15
-1.827928775e-15
-1.759483057e-15
-1.620112413e-15
-1.991425135e-15
-2.003776309e-15
-1.80247264e-15
-1.600952706e-15
-1.474202301e-15
-1.557983396e-15
-1.29852722e-15
-1.432355546e-15
-1.836133625e-15
-1.769179999e-15
-1.459337447e-15
-1.506907483e-15
-1.356459714e-15
-1.572439404e-15
-1.472299044e-15
-1.61439177e-15
-1.367553669e-15
-1.598248548e-15
-1.273591191e-15
-1.128069722e-15
-1.316268338e-15
-1.475399316e-15
-2.283486953e-15
-1.388195708e-15
-1.217302863e-15
-1.370272469e-15
-7.532290217e-16
-7.536278103e-16
-1.5040099e-15
-1.515127165e-15
-1.152634472e-15
-8.258960708e-16
-6.566085566e-16
-1.955039836e-15
-2.071778215e-15
-1.376568666e-15
-1.330091414e-15
-1.110053206e-15
-1.085532981e-15
-9.974594009e-16
-1.487875737e-15
-1.325372402e-15
-1.077776796e-15
-7.033939489e-16
-6.651089275e-16
-1.425561424e-15
-1.501761546e-15
-1.163477194e-15
-1.519253169e-15
-1.113427033e-15
-1.73366724e-15
-1.584944518e-15
-1.318660579e-15
-6.598979662e-16
-1.031390417e-15
-4.217265556e-16
-1.328179897e-15
-3.935805243e-16
-1.737045115e-15
-1.712603402e-15
-2.011681321e-15
-1.809986585e-15
-1.443145095e-15
-2.053026185e-15
-1.605026964e-15
-1.394755948e-15
-1.545879109e-15
-1.261693324e-15
-1.228037323e-15
-1.5973896e-15
-1.524090161e-15
-1.798603473e-15
-2.019392983e-15
-1.765743999e-15
-1.625061371e-15
-1.453332708e-15
-1.607784283e-15
-1.923348286e-15
-1.768021639e-15
-1.951284729e-15
-1.583345418e-15
-1.771017556e-15
-1.558540592e-15
-1.603375547e-15
-1.368682959e-15
-1.269713712e-15
-1.425188808e-15
-1.679691049e-15
-1.843127828e-15
-1.56560681e-15
-1.416280081e-15
-1.412850382e-15
-1.538229395e-15
-1.286278804e-15
-1.464201075e-15
-1.825549559e-15
-1.879856203e-15
-1.661233711e-15
-1.4405616e-15
-1.748797732e-15
-1.796585061e-15
-1.679494161e-15
-1.652936162e-15
-2.268091632e-15
-1.698429946e-15
-1.416836976e-15
-1.238301908e-15
-1.187410864e-15
-1.549895321e-15
-1.354375788e-15
-1.366889352e-15
-1.402254114e-15
-1.35729593e-15
-1.346616094e-15
-1.680030099e-15
-1.578692427e-15
-1.397098234e-15
-9.04382333e-16
-8.663044877e-16
-7.540442947e-16
-1.045244946e-15
-9.786877347e-16
-1.359138118e-15
-1.506141056e-15
-1.983513469e-15
-1.880787837e-15
-1.246912606e-15
-1.362795625e-15
-7.755331698e-16
-5.265118763e-16
-5.484296571e-16
-1.420925932e-15
-9.75880409e-16
-5.207284246e-16
-7.671089508e-16
-7.606563796e-16
-2.350738495e-15
-1.700531333e-15
-1.641035583e-15
-1.371313603e-15
-1.341843526e-15
-9.143902153e-16
-1.422961362e-15
-7.493480997e-16
-1.311190738e-15
-1.350302152e-15
-1.181516981e-15
-8.259761158e-17
-1.633401123e-16
-2.081166248e-15
-2.067426919e-15
-1.291616555e-15
-1.435487353e-15
-1.964081353e-15
-1.653767182e-15
-1.276234652e-15
-1.017184599e-15
-7.89666009e-16
-8.878290487e-16
-9.915070973e-16
-5.700986625e-16
-1.200476512e-15
-6.939722851e-16
-1.134785511e-15
-1.780635083e-15
-1.258921858e-15
-2.056877146e-15
-1.464044434e-15
-1.607875456e-15
-1.347842682e-15
-1.295507661e-15
-1.575420154e-15
-1.413194755e-15
-1.146534722e-15
-1.211400853e-15
-1.196130221e-15
-1.349912964e-15
-1.482237665e-15
-1.447700664e-15
-1.497691739e-15
-1.533550124e-15
-1.374046351e-15
-1.682141299e-15
-1.042528956e-15
-1.6374253e-15
-1.714320616e-15
-1.281889626e-15
-1.537232459e-15
-1.586727315e-15
-1.484316281e-15
-1.358756476e-15
-1.822535908e-15
-1.67883294e-15
-1.706836414e-15
-1.7785427e-15
-1.820810636e-15
-1.582881439e-15
-1.104754865e-15
-9.918027378e-16
-1.425226993e-15
-1.858511185e-15
-1.689806793e-15
-1.572165152e-15
-1.473579802e-15
-1.193930973e-15
-1.423445731e-15
-1.34705469e-15
-1.360532091e-15
-1.862947595e-15
-1.575770472e-15
-1.989776524e-15
-1.31468248e-15
-1.535329445e-15
-1.799449166e-15
-1.458503686e-15
-1.68406042e-15
-1.349067251e-15
-1.861575129e-15
-1.125035802e-15
-1.751733389e-15
-1.613443485e-15
-1.547766723e-15
-1.2905541e-15
-1.254679471e-15
-1.168119909e-15
-1.446428182e-15
-1.274801861e-15
-1.067280582e-15
-1.809785988e-15
-1.638952483e-15
-1.442162002e-15
-1.393004658e-15
-1.470515701e-15
-1.000694897e-15
-9.0643347e-16
-8.250081314e-16
-1.114398583e-15
-9.281460111e-16
-1.029531202e-15
-1.236796671e-15
-9.74032239e-16
-1.909705719e-15
-2.131645238e-15
-1.376023546e-15
-1.303646778e-15
-1.417454683e-15
-6.737314833e-16
-6.74621713e-16
-9.931174422e-16
-1.205395435e-15
-9.226540449e-16
-4.814633873e-16
-5.205297744e-16
-7.18546435e-16
-2.29799493e-15
-1.469334337e-15
-1.705317543e-15
-1.518482837e-15
-1.177847393e-15
-1.006824973e-15
-1.16664327e-15
-1.114662492e-15
-1.087405594e-15
-1.280814442e-15
-1.167062954e-15
-8.873913328e-16
-1.962244867e-16
-3.884411621e-16
-2.594068707e-15
-2.006246273e-15
-1.775029973e-15
-1.39264281e-15
-1.583352563e-15
-1.18483986e-15
-1.069285689e-15
-8.269284663e-16
-1.321733957e-15
-6.410941693e-16
-8.248768718e-16
-4.307244948e-16
-8.628805167e-16
-1.063865652e-15
-9.318230545e-16
-4.097264695e-16
-1.385881372e-15
-9.517896051e-16
-1.727388767e-15
-1.536599514e-15
-1.181515833e-15
-1.293967389e-15
-1.315901448e-15
-1.640678692e-15
-1.85855669e-15
-1.251420821e-15
-1.196026402e-15
-1.418137209e-15
-1.064930134e-15
-1.562739928e-15
-1.389844069e-15
-1.132826997e-15
-1.303325871e-15
-1.119775157e-15
-1.21761108e-15
-1.301615493e-15
-1.57148104e-15
-1.735522191e-15
-1.350956178e-15
-1.132522878e-15
-1.622459743e-15
-1.408610509e-15
-1.202429253e-15
-1.561383395e-15
-1.568652625e-15
-1.293507782e-15
-1.642377578e-15
-1.588452119e-15
-1.5613203e-15
-1.45860793e-15
-1.72933609e-15
-2.020162238e-15
-1.516947273e-15
-1.535122677e-15
-1.680879873e-15
-1.486332724e-15
-1.79448477e-15
-1.447395567e-15
-1.070234115e-15
-1.253845565e-15
-1.323802866e-15
-1.003903201e-15
-1.841527726e-15
-1.484884964e-15
-1.373031691e-15
-1.894975005e-15
-1.182344202e-15
-1.231395089e-15
-1.49916863e-15
-1.28983082e-15
-1.397283351e-15
-1.72465002e-15
-1.858408428e-15
-1.355821451e-15
-1.38411402e-15
-1.512952395e-15
-1.292003668e-15
-1.485639679e-15
-1.606757929e-15
-1.594662869e-15
-1.577724974e-15
-1.304370818e-15
-1.208302848e-15
-1.60624408e-15
-1.485141549e-15
-1.319427037e-15
-1.449193605e-15
-1.20994761e-15
-1.429920724e-15
-9.790766154e-16
-1.105076654e-15
-1.182212886e-15
-1.457867594e-15
-1.855946493e-15
-1.495106889e-15
-1.410894031e-15
-1.276289443e-15
-1.126094969e-15
-7.773908893e-16
-6.852975294e-16
-1.239054005e-15
-1.502716695e-15
-8.20227888e-16
-7.104134173e-16
-1.051954948e-15
-1.010794089e-15
-1.875762324e-15
-2.081158906e-15
-1.36549901e-15
-1.372336185e-15
-1.210209924e-15
-1.225247005e-15
-8.617991016e-16
-9.764933086e-16
-9.5781348e-16
-1.063980031e-15
-5.479597568e-16
-4.072837995e-16
-4.977207736e-16
-6.409082061e-16
-1.717029843e-15
-2.262706363e-15
-1.208421619e-15
-1.538965444e-15
-1.232010524e-15
-1.079512125e-15
-1.212543231e-15
-1.340998931e-15
-1.104317844e-15
-1.005520457e-15
-1.084863096e-15
-9.361411694e-16
-6.984350669e-16
-2.095293936e-16
-3.318611455e-16
-1.570233744e-15
-1.781572797e-15
-1.837457033e-15
-1.390492369e-15
-1.306251794e-15
-1.979885528e-15
-1.40978661e-15
-8.749793314e-16
-7.051185049e-16
-8.304231753e-16
-7.723130976e-16
-1.468437323e-15
-1.429884962e-15
-4.159532989e-16
-6.401641509e-16
-9.866545624e-16
-2.403149164e-16
-5.155807459e-16
-9.216876132e-16
-1.383521014e-15
-1.2090934e-15
-8.764683549e-16
-1.219973819e-15
-1.415134072e-15
-9.657757327e-16
-1.195469379e-15
-1.357814113e-15
-1.268087957e-15
-1.273736574e-15
-1.582049321e-15
-1.732233119e-15
-1.144461879e-15
-1.088436466e-15
-1.289010949e-15
-1.250542922e-15
-1.444588124e-15
-1.555223024e-15
-1.900482189e-15
-1.412179043e-15
-1.362519215e-15
-1.235665265e-15
-1.093556079e-15
-1.565069322e-15
-1.356087717e-15
-1.612899493e-15
-1.720679264e-15
-1.513553643e-15
-1.238130976e-15
-1.537919594e-15
-1.303545572e-15
-1.021839938e-15
-8.123345892e-16
-1.937772206e-15
-1.440028308e-15
-1.188824505e-15
-1.262855737e-15
-1.55926251e-15
-1.346056177e-15
-1.313858723e-15
-1.427010259e-15
-1.330583734e-15
-1.523167218e-15
-1.508248165e-15
-1.543011569e-15
-1.559532023e-15
-1.550054674e-15
-1.347514653e-15
-1.298990713e-15
-1.684381948e-15
-1.033694223e-15
-1.091851581e-15
-1.580020383e-15
-1.67426295e-15
-9.144398233e-16
-1.293559359e-15
-8.600413742e-16
-1.465843635e-15
-1.392645794e-15
-1.173839295e-15
-1.705430475e-15
-1.818591852e-15
-1.200204876e-15
-1.910528354e-15
-1.336556338e-15
-1.69533972e-15
-1.243078735e-15
-1.26200399e-15
-1.201325871e-15
-1.476802842e-15
-1.469034508e-15
-1.321927123e-15
-1.576529189e-15
-1.467950622e-15
-1.82947092e-15
-1.226413752e-15
-1.063023964e-15
-1.374785696e-15
-1.668960157e-15
-1.048343827e-15
-1.190636097e-15
-9.97689308e-16
-1.268292044e-15
-1.17337093e-15
-1.025278702e-15
-1.158532743e-15
-1.216475814e-15
-1.332335547e-15
-1.710031493e-15
-1.390310197e-15
-1.574805924e-15
-1.187844279e-15
-8.852937738e-16
-7.32582781e-16
-8.119505904e-16
-1.000565446e-15
-9.364675817e-16
-7.286940526e-16
-5.298156061e-16
-4.936354009e-16
-5.277573856e-16
-3.144543626e-16
-1.16501473e-15
-1.942401073e-15
-1.750581431e-15
-1.503208624e-15
-1.776284154e-15
-1.755220264e-15
-9.249206208e-16
-7.99509749e-16
-9.638308403e-16
-9.932386456e-16
-6.961594167e-16
-4.117122484e-16
-4.032619375e-16
-3.710756711e-16
-6.379606213e-16
-1.438988935e-15
-1.821861507e-15
-1.575503002e-15
-1.491337976e-15
-1.231761499e-15
-1.2302651e-15
-1.432974602e-15
-1.041403792e-15
-1.245997792e-15
-1.081879503e-15
-1.032481221e-15
-9.729955576e-16
-4.973941479e-16
-5.680371763e-16
-5.323916436e-16
-4.554947744e-16
-1.576382878e-15
-1.747823801e-15
-1.816843703e-15
-2.014372483e-15
-1.360076348e-15
-9.636261862e-16
-1.695557774e-15
-5.849354222e-16
-8.518883272e-16
-3.588448427e-16
-7.478772373e-16
-6.145262599e-16
-1.256586218e-15
-8.605515661e-16
-8.865655927e-16
-8.669581951e-16
-6.179737989e-16
-4.046740941e-16
-6.324776293e-16
-7.413142115e-16
-9.537410993e-16
-1.045885658e-15
-6.937697154e-16
-1.424770826e-15
-1.522120966e-15
-9.965142811e-16
-6.385312109e-16
-1.324745212e-15
-1.102806574e-15
-1.347188988e-15
-1.201198737e-15
-1.39984228e-15
-1.171135426e-15
-1.023094428e-15
-1.272874059e-15
-1.342509986e-15
-1.764605732e-15
-1.508095711e-15
-1.156392869e-15
-1.058951172e-15
-1.352801536e-15
-1.036188167e-15
-1.19081675e-15
-1.25686371e-15
-1.467876379e-15
-1.071696224e-15
-1.486271874e-15
-1.303001344e-15
-1.354040854e-15
-1.41777196e-15
-1.045190821e-15
-1.388674249e-15
-7.739742118e-16
-1.858449585e-15
-1.643248532e-15
-2.061779099e-15
-1.38319569e-15
-9.877053647e-16
-1.325486436e-15
-9.901291564e-16
-1.140763982e-15
-1.284914953e-15
-1.670149269e-15
-1.638814037e-15
-1.53131657e-15
-1.530341172e-15
-1.199944332e-15
-1.267493951e-15
-1.611611897e-15
-1.477323498e-15
-1.390637955e-15
-9.422522792e-16
-1.394169117e-15
-1.855973266e-15
-1.443748812e-15
-1.299398844e-15
-1.315394358e-15
-1.313726272e-15
-1.119377817e-15
-1.231548781e-15
-1.180604834e-15
-1.090667275e-15
-1.42640724e-15
-1.712627066e-15
-1.6323278e-15
-1.623014297e-15
-1.491963942e-15
-1.07060079e-15
-9.95660561e-16
-1.29313081e-15
-1.241097875e-15
-1.318480751e-15
-1.849394525e-15
-1.434658248e-15
-1.546617403e-15
-1.199160927e-15
-1.96799943e-15
-1.572030842e-15
-1.281842246e-15
-1.167396569e-15
-1.197958597e-15
-1.371116917e-15
-1.530625908e-15
-1.152668792e-15
-1.158997629e-15
-1.269429937e-15
-1.246569958e-15
-1.516511418e-15
-1.442494457e-15
-1.116879253e-15
-1.241771206e-15
-1.113533317e-15
-9.826355742e-16
-1.006343224e-15
-9.685335503e-16
-1.044914985e-15
-9.504289798e-16
-8.174584156e-16
-7.15720495e-16
-1.12121815e-15
-1.052408587e-15
-7.970090491e-16
-1.321985914e-15
-1.587182024e-15
-1.259376113e-15
-1.487215153e-15
-1.220532206e-15
-1.044839015e-15
-6.893205602e-16
-8.412187261e-16
-5.584507325e-16
-8.09284625e-16
-4.468775516e-16
-5.872287458e-16
-4.86452005e-16
-5.103762964e-16
-6.070135274e-16
-1.467163761e-15
-1.567131201e-15
-1.93947038e-15
-1.635167256e-15
-1.468669222e-15
-1.3711604e-15
-7.242283413e-16
-9.543446286e-16
-7.9301762e-16
-9.085452553e-16
-4.471158857e-16
-6.009110561e-16
-2.200711142e-16
-6.267789261e-16
-4.421126166e-16
-6.290581101e-16
-1.644644754e-15
-1.607893809e-15
-1.97203882e-15
-1.545754693e-15
-1.155802481e-15
-1.298922506e-15
-1.203110616e-15
-1.344391977e-15
-1.108942672e-15
-1.04884394e-15
-7.727078444e-16
-8.906150132e-16
-1.019751378e-15
-6.666730669e-16
-9.215849557e-16
-5.00336476e-16
-6.153962142e-16
-1.281069511e-15
-1.810019573e-15
-1.970253769e-15
-1.52247119e-15
-1.614410791e-15
-1.333977841e-15
-1.060727976e-15
-6.63066951e-16
-7.929329494e-16
-7.767668244e-16
-5.937415889e-16
-7.7013118e-16
-1.332930942e-15
-1.032569466e-15
-7.582033014e-16
-6.155513828e-16
-5.114849057e-16
-3.58081563e-16
-4.434772735e-16
4.09889051e-16
-2.263159056e-16
-6.072768348e-17
-7.078005088e-16
-9.298727971e-16
-8.749523755e-16
-1.275857226e-15
-1.223857033e-15
-9.217659664e-16
-1.164211928e-15
-1.38340478e-15
-1.438770496e-15
-1.066719363e-15
-1.205541488e-15
-8.654077629e-16
-1.279178787e-15
-1.219175511e-15
-1.315523279e-15
-1.260735939e-15
-8.8332423e-16
-1.095117161e-15
-8.603063347e-16
-1.481290978e-15
-1.150151382e-15
-1.328404219e-15
-1.012027526e-15
-1.179431028e-15
-8.100120301e-16
-1.136364211e-15
-1.124413384e-15
-9.399630572e-16
-9.090695085e-16
-1.034424332e-15
-1.514066563e-15
-1.024050338e-15
-2.16790774e-15
-1.329446158e-15
-1.456398635e-15
-1.388336457e-15
-1.541657324e-15
-1.387384659e-15
-1.390874223e-15
-7.93333192e-16
-9.12588373e-16
-1.762052885e-15
-1.715811943e-15
-1.722700234e-15
-1.358669168e-15
-1.069138596e-15
-9.739383676e-16
-1.459060805e-15
-1.20742884e-15
-1.268791695e-15
-1.018573224e-15
-1.622802371e-15
-1.24730878e-15
-1.790110258e-15
-1.490492077e-15
-9.726423624e-16
-1.239011968e-15
-1.428049303e-15
-1.546254115e-15
-1.059229453e-15
-7.129160058e-16
-6.650021042e-16
-1.012783914e-15
-1.576044569e-15
-1.521967301e-15
-1.436844718e-15
-1.485420863e-15
-1.236702816e-15
-1.211441018e-15
-1.157910149e-15
-1.364352358e-15
-1.213136122e-15
-9.990095078e-16
-1.060052172e-15
-1.549810351e-15
-2.00621027e-15
-1.546339396e-15
-1.241031386e-15
-1.151234951e-15
-9.473764992e-16
-9.182891314e-16
-1.287713012e-15
-1.593650156e-15
-1.699034473e-15
-1.520213821e-15
-1.458099477e-15
-1.053351719e-15
-1.561893675e-15
-1.075317617e-15
-1.423526548e-15
-1.03272568e-15
-1.314611415e-15
-1.096744417e-15
-1.118331318e-15
-1.369669884e-15
-1.078750165e-15
-1.191904163e-15
-1.19313157e-15
-1.041748907e-15
-1.146581829e-15
-1.22299184e-15
-1.676663378e-15
-1.205502467e-15
-9.171884356e-16
-1.189530215e-15
-9.368253602e-16
-7.844678239e-16
-7.757772121e-16
-9.945080595e-16
-9.473035767e-16
-6.770540702e-16
-7.759484809e-16
-7.810493592e-16
-9.441456977e-16
-6.808769776e-16
-6.509371977e-16
-2.016794761e-15
-1.363853702e-15
-1.656761734e-15
-1.357651005e-15
-1.369945983e-15
-1.101938151e-15
-5.124981886e-16
-9.223073276e-16
-7.306197011e-16
-7.695451305e-16
-2.538181637e-16
-3.33877175e-16
-2.651642578e-16
-4.890481362e-16
-5.242743947e-16
-2.79580711e-16
-1.472289405e-15
-1.859335544e-15
-1.168852156e-15
-1.632819519e-15
-1.344230354e-15
-1.066879213e-15
-9.060523168e-16
-1.071771906e-15
-9.110241756e-16
-9.898830495e-16
-6.732159559e-16
-2.772014312e-16
-4.738303025e-16
-4.156413399e-16
-3.372378874e-16
-3.580840089e-16
-1.015879482e-15
-1.899522155e-15
-1.485635645e-15
-1.876888594e-15
-1.599318916e-15
-1.511141041e-15
-1.071368188e-15
-1.412120775e-15
-1.299827239e-15
-8.750854015e-16
-6.52011645e-16
-7.278261161e-16
-8.234838139e-16
-5.681865262e-16
-9.760695138e-16
-8.532947872e-16
-6.5067101e-16
-5.946756191e-16
-1.002573176e-15
-1.330207578e-15
-1.392270586e-15
-1.768217498e-15
-1.560472144e-15
-1.70241174e-15
-1.484331079e-15
-1.791199884e-15
-1.602726298e-15
-1.374377203e-15
-1.359427559e-15
-6.619994369e-16
-4.717937589e-16
-1.192828191e-15
-8.720578345e-16
-1.197734789e-15
-1.073884578e-15
-6.808557301e-16
-8.777224437e-16
-1.084681361e-15
-9.113689876e-16
8.654396779e-17
2.00748056e-16
9.016064466e-16
-1.004898786e-16
-4.274638441e-16
-2.10107806e-16
-4.306865153e-16
-7.87768077e-16
-5.309825719e-16
-1.034405537e-15
-8.00865695e-16
-1.321594609e-15
-9.794564116e-16
-3.506075131e-16
-5.740104338e-16
-1.10033547e-15
-1.01430162e-15
-1.370711409e-15
-8.116365124e-16
-1.049939418e-15
-1.095603097e-15
-5.211529674e-16
-9.702209012e-16
-1.228374495e-15
-1.299585026e-15
-8.809299565e-16
-5.26671093e-16
-9.98927209e-16
-9.93095888e-16
-8.434528275e-16
-1.120122983e-15
-9.051041956e-16
-7.53716031e-16
-1.225177384e-15
-6.029562192e-16
-1.413485338e-15
-1.034440419e-15
-1.076324528e-15
-1.092930507e-15
-1.098378953e-15
-1.156848998e-15
-1.346160911e-15
-7.47860728e-16
-4.320853921e-16
-1.450062065e-15
-1.9714607e-15
-1.226001978e-15
-1.152974879e-15
-1.333485392e-15
-1.288357774e-15
-1.28366519e-15
-7.616070997e-16
-6.77837751e-16
-1.189217234e-15
-2.00109708e-15
-1.241123011e-15
-1.589481091e-15
-1.622957986e-15
-1.146966779e-15
-1.377974821e-15
-1.51326553e-15
-1.365926664e-15
-1.478630256e-15
-1.023266628e-15
-8.208114541e-16
-1.384037848e-15
-1.3901743e-15
-1.734302988e-15
-1.230523969e-15
-1.56556708e-15
-9.48602114e-16
-1.405648876e-15
-1.535021561e-15
-1.415730403e-15
-1.024930997e-15
-9.23985504e-16
-9.530232599e-16
-1.700367733e-15
-1.50329305e-15
-1.625107005e-15
-1.756527704e-15
-1.567213372e-15
-8.236885137e-16
-1.021697435e-15
-1.021408008e-15
-1.4853758e-15
-1.213236205e-15
-1.286383031e-15
-9.950452103e-16
-1.153873928e-15
-1.723327376e-15
-1.915470123e-15
-1.619047186e-15
-1.391640383e-15
-1.112389831e-15
-1.275693653e-15
-1.036237194e-15
-1.105073122e-15
-1.162383349e-15
-1.347805842e-15
-1.583346253e-15
-1.094890921e-15
-1.065672006e-15
-1.136835874e-15
-1.887043348e-15
-1.187253915e-15
-9.077789586e-16
-9.743822666e-16
-6.657477496e-16
-9.857112867e-16
-1.093326194e-15
-1.052076321e-15
-1.201561122e-15
-1.091990119e-15
-1.070125493e-15
-1.195431169e-15
-1.080431957e-15
-1.040981687e-15
-1.170395638e-15
-2.191170053e-15
-1.703612539e-15
-1.238270097e-15
-1.165232602e-15
-1.05813928e-15
-8.98718401e-16
-6.747641355e-16
-8.898979939e-16
-8.417157345e-16
-6.093819812e-16
-8.426056815e-16
-4.406820467e-16
-5.398878602e-16
-7.958920537e-16
-6.6929615e-16
-5.995212345e-16
-1.500458049e-15
-1.653687313e-15
-1.35737778e-15
-1.265338002e-15
-1.244298397e-15
-1.254280157e-15
-7.487345866e-16
-7.479943876e-16
-7.503881482e-16
-5.200509862e-16
-5.434437821e-16
-3.950435055e-16
-3.698788766e-16
-3.402123553e-16
-1.291242011e-16
-6.160680709e-16
-4.854528405e-16
-1.803417061e-15
-1.612301031e-15
-1.547850036e-15
-1.46465947e-15
-1.402916985e-15
-9.483399801e-16
-1.114714826e-15
-1.16676575e-15
-9.625855374e-16
-9.107750276e-16
-4.956781738e-16
-4.96387284e-16
-3.493035976e-16
-8.16866158e-16
-1.960553251e-16
-1.657029739e-16
-7.463586805e-16
-1.071362402e-15
-1.914907478e-15
-1.886559831e-15
-1.638593572e-15
-1.700168209e-15
-1.195743946e-15
-1.254063531e-15
-1.034511078e-15
-1.040618897e-15
-5.429495106e-16
-4.197734586e-16
-6.379906648e-16
-5.890488085e-16
-6.245599861e-16
-4.468210298e-16
-4.911419261e-16
-5.824664748e-16
-7.254051871e-16
-7.007801688e-16
-9.082356766e-16
-1.686571266e-15
-1.512669741e-15
-1.551259626e-15
-1.871310953e-15
-1.819048701e-15
-1.280485847e-15
-1.939341856e-15
-1.426948491e-15
-1.661247673e-15
-1.051400419e-15
-5.149954761e-16
-7.865662986e-16
-7.004349249e-16
-1.456354225e-15
-1.174043997e-15
-3.720877671e-16
-8.799011284e-16
-6.718140672e-16
-1.067052961e-15
-9.302912071e-16
-8.20080855e-16
-9.972125635e-17
2.123384481e-16
5.418259513e-16
1.39411472e-16
-5.324048633e-16
5.376529495e-16
5.953443202e-16
-3.114017996e-16
-6.645205077e-16
5.00130442e-16
-4.740122156e-16
-1.489494224e-16
-5.492533863e-16
-3.482565131e-16
-5.000570878e-16
-5.521430638e-16
-1.049646524e-15
-1.028494758e-15
-1.064732222e-15
-7.013762904e-16
-9.095176217e-16
-7.601217459e-16
-8.811344256e-16
-1.034206388e-15
-8.830834385e-16
-8.335405008e-16
-4.881538101e-16
-1.258516871e-15
-7.629604479e-16
-6.501092508e-16
-1.097128765e-15
-1.122757274e-15
-1.069401677e-15
-3.079927901e-16
-1.16582588e-16
-5.723128906e-16
-9.045581019e-16
-9.844313617e-16
-8.379436454e-16
-1.142019207e-15
-8.044135609e-17
-8.338394409e-16
-9.472359561e-16
-6.28785168e-16
-9.348196712e-16
-1.224226185e-15
-9.205933038e-16
-8.590794866e-16
-1.151274527e-15
-1.089863742e-15
-7.912390754e-16
-8.842278846e-16
-6.831688588e-16
-6.580912256e-16
-1.975710279e-15
-1.491830252e-15
-1.575820774e-15
-1.247559052e-15
-1.51118439e-15
-1.379471963e-15
-1.376920445e-15
-5.647242888e-16
-1.2338744e-15
-5.599273531e-16
-9.482493605e-16
-1.217313542e-15
-1.992553413e-15
-1.483224057e-15
-1.529601444e-15
-1.397487641e-15
-1.116382792e-15
-1.338418154e-15
-1.575332313e-15
-1.496679128e-15
-1.059199539e-15
-1.075979708e-15
-1.288324572e-15
-1.846163129e-15
-1.254981597e-15
-1.357431564e-15
-1.24413483e-15
-1.35549502e-15
-1.160159792e-15
-1.094417899e-15
-1.27353518e-15
-1.148690655e-15
-1.286634795e-15
-1.117086275e-15
-1.06699335e-15
-1.09085395e-15
-1.651939297e-15
-1.703679157e-15
-1.604661682e-15
-1.522044798e-15
-1.736861205e-15
-1.337926811e-15
-1.072654972e-15
-1.15041385e-15
-1.546803159e-15
-1.64524066e-15
-1.141863191e-15
-1.327182242e-15
-1.264423082e-15
-1.356347816e-15
-2.089796739e-15
-1.752938898e-15
-1.801233824e-15
-1.47503857e-15
-1.135858789e-15
-1.152160154e-15
-1.336382693e-15
-1.049276323e-15
-1.065851642e-15
-1.130600561e-15
-1.512432353e-15
-1.070728061e-15
-1.04324553e-15
-9.982870592e-16
-1.444126771e-15
-2.254490735e-15
-1.929752488e-15
-1.075267483e-15
-1.137067906e-15
-7.023468869e-16
-7.73219699e-16
-9.708847725e-16
-8.392367333e-16
-1.238829428e-15
-6.816276401e-16
-1.035230115e-15
-8.353970674e-16
-6.883379282e-16
-7.82900611e-16
-9.528039019e-16
-1.324832651e-15
-2.228954178e-15
-1.980827193e-15
-1.7715061e-15
-1.355568343e-15
-1.312242459e-15
-1.30816718e-15
-6.835392184e-16
-4.704548689e-16
-6.458836321e-16
-4.385721578e-16
-3.382311098e-16
-5.704591144e-16
-1.803697582e-16
-3.259044637e-16
-1.102052999e-15
-8.834107272e-16
-4.809845589e-16
-1.862332074e-15
-1.570497625e-15
-1.637679238e-15
-1.465887648e-15
-1.187764809e-15
-1.091292348e-15
-9.294032568e-16
-6.842071688e-16
-8.828440197e-16
-9.596332466e-16
-3.045496193e-16
-2.055760087e-16
-5.505931076e-16
-6.37560662e-16
-1.130986803e-16
-5.245729855e-16
-7.819382831e-16
-5.700546905e-16
-1.89177026e-15
-1.961429162e-15
-1.442852288e-15
-1.757850964e-15
-1.128457157e-15
-8.111597701e-16
-6.494244089e-16
-9.424270332e-16
-8.861353729e-16
-8.690435725e-16
-5.317507841e-16
-3.755859469e-16
-1.937119886e-16
2.44173395e-17