/*--------------------------------*- C++ -*----------------------------------*\
| =========                 |                                                 |
| \\      /  F ield         | OpenFOAM: The Open Source CFD Toolbox           |
|  \\    /   O peration     | Version:  2212                                  |
|   \\  /    A nd           | Website:  www.openfoam.com                      |
|    \\/     M anipulation  |                                                 |
\*---------------------------------------------------------------------------*/
FoamFile
{
    version     2.0;
    format      ascii;
    arch        "LSB;label=32;scalar=64";
    class       surfaceScalarField;
    location    "0.8";
    object      phi;
}
// * * * * * * * * * * * * * * * * * * * * * * * * * * * * * * * * * * * * * //

dimensions      [0 3 -1 0 0 0 0];

oriented        oriented;

internalField   nonuniform List<scalar> 
124950
(
0.0025
2.765797557e-20
2.731709394e-19
0.0025
-8.426684689e-19
-4.964980607e-19
0.0025
-4.091282458e-19
1.515933912e-19
0.0025
-4.079148483e-19
-5.550907008e-19
0.0025
-1.112115493e-18
-9.908473431e-19
0.0025
-1.187991517e-18
-2.912003335e-19
0.0025
-7.570883193e-19
-8.086463324e-19
0.0025
-3.824876018e-19
2.081098871e-19
0.0025
-4.996483863e-19
-8.626640538e-21
0.0025
2.745458387e-19
-3.799114702e-19
0.0025
-1.118027342e-18
-1.124239878e-18
0.0025
-1.550053217e-18
-8.663427341e-19
0.0025
-7.70739119e-19
-8.649341059e-19
0.0025
-1.221892533e-18
-2.077499579e-19
0.0025
-8.161698933e-19
-1.995016958e-19
0.0025
-2.188665679e-19
-8.838044876e-19
0.0025
-1.516094759e-19
5.792750166e-19
0.0025
-2.74510322e-19
3.924074983e-20
0.0025
-4.51378843e-20
-1.651398423e-19
0.0025
1.309432192e-19
-1.605781106e-19
0.0025
-1.266441162e-18
-1.045692664e-18
0.0025
-1.716284509e-18
-1.017617028e-18
0.0025
-9.150264807e-19
-9.344651687e-19
0.0025
-1.790664986e-18
-6.591610921e-19
0.0025
-6.980703821e-19
-6.574131419e-19
0.0025
-1.072836857e-18
-9.013817146e-19
0.0025
-4.98475193e-19
6.200824805e-19
0.0025
-4.279786839e-19
1.457239415e-19
0.0025
-3.072917111e-19
-8.29267241e-20
0.0025
3.644870172e-19
-1.02825066e-19
0.0025
8.250490822e-20
5.032756192e-19
0.0025
-2.710643543e-19
3.901222071e-19
0.0025
-8.600641157e-20
-3.183574475e-20
0.0025
-1.056271151e-19
5.177694514e-20
0.0025
7.89671216e-19
2.671924599e-19
0.0025
-1.290239923e-18
-1.006078263e-18
0.0025
-1.001380024e-18
-8.670820146e-19
0.0025
-1.127022182e-18
-9.025228654e-19
0.0025
-1.553108758e-18
-6.39624757e-19
0.0025
-9.317398955e-19
-8.349591288e-19
0.0025
-1.092996012e-18
-5.915977349e-19
0.0025
-1.607282805e-18
1.699482987e-19
0.0025
-7.309210906e-19
-3.72664932e-19
0.0025
-8.468775784e-19
-2.200989136e-19
0.0025
-6.178705437e-20
-3.806900285e-19
0.0025
-1.973486618e-19
5.059266846e-19
0.0025
-2.947978084e-19
2.548445432e-19
0.0025
-5.95796253e-19
2.349025058e-19
0.0025
8.899451526e-20
2.519317648e-20
0.0025
5.884213472e-19
2.23332227e-19
0.0025
6.422395791e-19
1.734941032e-19
0.0025
-3.963368969e-20
4.566923334e-19
0.0025
-3.356721199e-19
1.24281844e-19
0.0025
2.5116575e-19
5.741092857e-19
0.0025
2.846520814e-19
-7.108905275e-20
0.0025
5.263375336e-19
4.854652976e-19
0.0025
-1.290687105e-18
-9.242290045e-19
0.0025
-1.39298589e-18
-1.018926369e-18
0.0025
-1.345519202e-18
-7.317767704e-19
0.0025
-1.691272968e-18
-1.109306419e-18
0.0025
-1.079422544e-18
-7.974591155e-19
0.0025
-1.185656432e-18
-7.283119515e-19
0.0025
-1.712432616e-18
-4.748532782e-20
0.0025
-8.000199465e-19
-7.323242215e-19
0.0025
-1.010192032e-18
-3.809933583e-19
0.0025
-6.502069204e-19
-2.589736999e-19
0.0025
-7.743306157e-19
4.68533449e-19
0.0025
-6.286615415e-19
5.989552386e-20
0.0025
-8.207681705e-19
-5.62668673e-20
0.0025
-1.223805778e-19
-1.339150865e-19
0.0025
-1.783732826e-19
-2.839700475e-19
0.0025
3.023643072e-19
6.380936106e-19
0.0025
-1.42791845e-19
5.113053547e-19
0.0025
-2.262435949e-19
4.59360942e-19
0.0025
-1.625641078e-19
3.666587091e-19
0.0025
3.162864478e-19
-1.210124672e-19
0.0025
3.273900545e-19
4.480085885e-20
0.0025
-6.822270964e-19
-8.326849261e-20
0.0025
2.705622726e-19
3.10813541e-19
0.0025
5.587997255e-20
4.594307957e-19
0.0025
1.513961848e-19
9.064299948e-20
0.0025
-1.966122806e-19
2.169183285e-19
0.0025
2.815579202e-19
7.080643493e-20
0.0025
4.264530455e-20
-5.67544946e-19
0.0025
-1.022900517e-18
-8.403575258e-19
0.0025
-1.017212238e-18
-8.184298142e-19
0.0025
-1.226685672e-18
-7.574277909e-19
0.0025
-1.718271966e-18
-1.140319659e-18
0.0025
-1.44192664e-18
-8.54904385e-19
0.0025
-1.609409851e-18
-1.279206533e-18
0.0025
-1.652394561e-18
-6.713647542e-19
0.0025
-1.32338851e-18
-1.069420362e-18
0.0025
-1.17918074e-18
-6.785778238e-19
0.0025
-1.145934645e-18
-5.715007156e-19
0.0025
-1.570392664e-18
9.84568283e-20
0.0025
-9.49246881e-19
2.86370718e-20
0.0025
-7.379740746e-19
-3.272311924e-19
0.0025
-3.686325736e-19
-2.913825061e-19
0.0025
-9.213073544e-19
-2.181125035e-19
0.0025
-2.026703977e-19
9.174287045e-19
0.0025
-5.932808412e-19
2.452190706e-19
0.0025
-4.955147055e-19
2.582009728e-19
0.0025
-2.155473917e-19
-4.496081002e-20
0.0025
-1.82345754e-19
-2.818608696e-19
0.0025
-1.292953174e-19
-4.780363424e-19
0.0025
-2.493730516e-19
4.21545481e-19
0.0025
1.293333963e-19
2.952950231e-19
0.0025
-2.726756479e-19
3.389470719e-19
0.0025
-1.223889936e-19
3.792977448e-19
0.0025
-3.038201715e-19
-5.554375125e-20
0.0025
7.291757256e-20
-8.988689286e-20
0.0025
1.823534031e-19
-5.156151667e-19
0.0025
-1.943076792e-19
4.440625297e-19
0.0025
-1.26256725e-19
2.316516106e-19
0.0025
3.324285653e-19
1.516710054e-19
0.0025
-3.005597296e-19
-2.021243824e-19
0.0025
-1.961064214e-19
1.313595686e-19
0.0025
-1.670659148e-19
1.397821005e-19
0.0025
3.099567797e-19
8.609126926e-20
0.0025
7.070422252e-19
-3.48807829e-19
0.0025
-5.85993002e-19
-3.626230541e-19
0.0025
-9.493935477e-19
-6.189817592e-19
0.0025
-8.557602313e-19
-6.265355165e-19
0.0025
-1.473328873e-18
-1.013609524e-18
0.0025
-1.17319729e-18
-7.128436006e-19
0.0025
-1.338794612e-18
-1.024578909e-18
0.0025
-1.472226439e-18
-8.966371379e-19
0.0025
-1.531975312e-18
-8.214541946e-19
0.0025
-1.448537496e-18
-8.73585839e-19
0.0025
-1.034471594e-18
-1.096315119e-18
0.0025
-1.896913488e-18
-6.484810782e-19
0.0025
-1.270747354e-18
-1.624983263e-19
0.0025
-1.025130965e-18
-6.489598533e-19
0.0025
-6.636344133e-19
-4.491177509e-19
0.0025
-8.858188006e-19
-2.832117468e-19
0.0025
-1.236581344e-18
8.459166483e-19
0.0025
-5.575384367e-19
2.528190255e-19
0.0025
-7.725160841e-19
2.715440077e-19
0.0025
6.04957822e-20
-1.003508749e-19
0.0025
-6.788166023e-19
-4.36135282e-19
0.0025
-1.045079239e-18
-1.115076079e-18
0.0025
-1.948598019e-19
8.708421927e-19
0.0025
-9.285434883e-20
4.904388006e-19
0.0025
-5.62001964e-19
1.795952412e-19
0.0025
-2.695073338e-19
1.328215549e-19
0.0025
-4.133737033e-19
-3.246646636e-19
0.0025
-8.79318417e-20
-3.020012854e-19
0.0025
-1.062937072e-19
-5.895836125e-19
0.0025
-3.441346012e-20
6.271598902e-19
0.0025
5.553682864e-20
2.687219387e-19
0.0025
2.251312137e-19
5.688052192e-19
0.0025
-1.757157226e-19
2.268000203e-19
0.0025
-3.879598245e-19
-5.802624885e-22
0.0025
-7.828672149e-20
-6.177039041e-20
0.0025
1.880258702e-19
-2.494084479e-19
0.0025
3.612297603e-19
-6.848170851e-19
0.0025
3.624275041e-19
9.691046295e-19
0.0025
2.836046303e-19
2.503591416e-19
0.0025
-6.341669779e-20
-1.983796964e-19
0.0025
-2.719480648e-19
1.372245445e-19
0.0025
5.607205583e-20
-3.783836791e-20
0.0025
-2.802290673e-19
1.875609636e-19
0.0025
-2.049579273e-19
-6.540456165e-19
0.0025
-2.316172954e-20
-3.176049898e-19
0.0025
4.996461645e-19
1.562500243e-19
0.0025
-5.98362963e-19
-6.225207766e-20
0.0025
-6.331032965e-19
-3.509048135e-19
0.0025
-6.413170583e-19
-3.743434486e-20
0.0025
-1.081653253e-18
-6.589880403e-19
0.0025
-8.066138708e-19
-7.532372017e-19
0.0025
-8.530022079e-19
-5.259581877e-19
0.0025
-1.141141927e-18
-9.262863315e-19
0.0025
-1.531539637e-18
-6.77761117e-19
0.0025
-1.22966614e-18
-8.240852342e-19
0.0025
-9.066500863e-19
-1.020846955e-18
0.0025
-1.246832746e-18
-6.691317656e-19
0.0025
-1.212633243e-18
-5.556026942e-19
0.0025
-1.433911719e-18
-6.058160786e-19
0.0025
-1.038945457e-18
-9.549574049e-19
0.0025
-8.527687911e-19
-5.81316709e-19
0.0025
-1.636590829e-18
1.750825917e-19
0.0025
-7.00763501e-19
-1.32533989e-19
0.0025
-1.083216704e-18
-9.610019276e-20
0.0025
-5.265703871e-19
-2.637548124e-19
0.0025
-7.689310714e-19
-4.844598492e-19
0.0025
-1.137882798e-18
-8.033308473e-19
0.0025
-3.029307465e-19
1.177338786e-18
0.0025
-7.662807499e-19
5.524882691e-19
0.0025
-6.542176916e-19
2.302406257e-19
0.0025
-6.209011428e-19
-5.120190811e-19
0.0025
-4.466352277e-19
-2.640273343e-19
0.0025
-5.507288304e-19
-5.694510701e-19
0.0025
-6.689733288e-19
-8.098581287e-19
0.0025
-1.519860128e-19
8.665668923e-19
0.0025
-2.206148851e-19
4.537842896e-19
0.0025
-7.671564576e-20
5.10569763e-19
0.0025
-2.260819552e-19
7.864053712e-20
0.0025
-4.415939635e-19
-8.653708071e-20
0.0025
-1.728613809e-19
-4.171864161e-19
0.0025
-4.602536306e-20
-2.953716707e-19
0.0025
1.556334599e-19
-5.714986254e-19
0.0025
3.46297889e-19
9.363868513e-19
0.0025
1.505851349e-19
-4.041188854e-20
0.0025
-4.396456255e-20
2.462870184e-19
0.0025
-3.794881877e-19
2.112369426e-19
0.0025
-4.023270522e-19
-1.921364598e-19
0.0025
-2.64592007e-19
1.038810529e-19
0.0025
3.977772199e-20
-3.227197849e-19
0.0025
2.728832893e-19
-4.254003703e-19
0.0025
3.934942428e-19
-3.591352029e-19
0.0025
-2.097139791e-19
5.329777665e-19
0.0025
4.282735891e-19
3.411332674e-19
0.0025
-2.459386666e-20
-2.312197032e-19
0.0025
-1.893406618e-19
2.91568445e-19
0.0025
1.499189826e-19
1.915447713e-19
0.0025
-6.112962221e-20
8.358413342e-20
0.0025
-1.540268513e-19
-3.344103277e-19
0.0025
-7.544835096e-20
-3.541272451e-19
0.0025
-1.606482785e-19
-3.299179055e-19
0.0025
2.488562232e-19
-1.012315559e-19
0.0025
-1.627950417e-18
-8.671269773e-19
0.0025
-3.765437276e-19
1.548229966e-19
0.0025
-5.666177728e-19
-8.444416394e-20
0.0025
-7.731477301e-19
-3.980585017e-19
0.0025
-4.685445396e-19
-4.507826138e-19
0.0025
-9.001396281e-19
-1.891885924e-19
0.0025
-7.022361359e-19
-3.959232091e-19
0.0025
-1.130155146e-18
-6.047145783e-19
0.0025
-8.23603357e-19
-8.511418907e-19
0.0025
-9.506052536e-19
-7.461433644e-19
0.0025
-1.336049323e-18
-8.518964878e-19
0.0025
-1.246588396e-18
-7.348368722e-19
0.0025
-1.444005162e-18
-5.960788434e-19
0.0025
-9.818788336e-19
-9.475535792e-19
0.0025
-1.02596294e-18
-9.125905578e-19
0.0025
-1.446178369e-18
-7.788106219e-19
0.0025
-1.108864625e-18
-3.494615833e-19
0.0025
-1.040205045e-18
-3.793358681e-19
0.0025
-1.047854303e-18
-4.197938998e-19
0.0025
-6.876167089e-19
-4.321045772e-19
0.0025
-7.826865152e-19
-5.666235419e-19
0.0025
-6.772121226e-19
6.983201329e-19
0.0025
-8.807376708e-19
1.759469032e-19
0.0025
-8.136024215e-19
7.128320411e-20
0.0025
-9.169103388e-19
-3.33817175e-19
0.0025
-4.970612064e-19
-3.957208564e-20
0.0025
-4.734688483e-19
-6.217025561e-19
0.0025
-8.743984984e-19
-9.841495026e-19
0.0025
-5.410014685e-19
9.308392818e-19
0.0025
-4.814043468e-19
6.05007807e-19
0.0025
-8.034974514e-19
4.800173512e-19
0.0025
-5.036932097e-19
-2.723473689e-21
0.0025
-3.501390919e-19
-4.738723044e-19
0.0025
-4.225197255e-19
-4.842759047e-19
0.0025
-2.346155188e-19
-3.616280437e-19
0.0025
-3.642959223e-19
-1.177888398e-18
0.0025
2.911015377e-19
8.850648569e-19
0.0025
-4.009432653e-19
1.62051681e-19
0.0025
-1.026781938e-19
4.751726824e-19
0.0025
-2.088394446e-19
1.979661404e-19
0.0025
-4.572665324e-19
-5.784057111e-20
0.0025
-1.636404736e-19
-1.826854515e-19
0.0025
-3.218835107e-20
-2.674926074e-19
0.0025
6.030942079e-20
-3.130636623e-19
0.0025
1.567962083e-19
-8.767863317e-19
0.0025
-7.467255378e-20
2.222621538e-19
0.0025
6.539528166e-20
3.952793426e-21
0.0025
-1.976073328e-19
1.692669962e-19
0.0025
-3.163392092e-19
2.109185505e-19
0.0025
2.96323296e-20
2.228734304e-19
0.0025
-1.230982536e-19
9.046580578e-20
0.0025
-2.691218485e-19
-2.945707893e-19
0.0025
-2.002220754e-19
-3.90672032e-19
0.0025
3.347149741e-19
-2.734269665e-19
0.0025
7.789928141e-19
-2.847635284e-19
0.0025
-3.14505127e-19
7.981001541e-19
0.0025
-2.378191922e-19
-4.963741098e-19
0.0025
-5.385660143e-19
-3.34256893e-19
0.0025
9.989001404e-20
3.076330291e-19
0.0025
-3.606722932e-19
-1.497609775e-19
0.0025
9.589289411e-20
3.578000077e-19
0.0025
6.25050049e-20
-4.669502283e-19
0.0025
-3.281914556e-19
-5.387026392e-19
0.0025
-1.123182236e-19
2.002786336e-19
0.0025
2.585526716e-19
-2.578482442e-19
0.0025
-1.14928608e-20
-3.161834516e-19
0.0025
-3.252763165e-18
-2.349802926e-18
0.0025
-1.113564838e-18
-3.492788157e-19
0.0025
-9.511068019e-19
-6.897856864e-19
0.0025
-1.918314829e-19
-2.854202374e-20
0.0025
-5.230832962e-19
-1.43126928e-19
0.0025
-7.227608406e-19
-7.663594994e-20
0.0025
-3.903367652e-19
-2.570378822e-19
0.0025
-8.549551016e-19
-5.288541268e-19
0.0025
-7.781271075e-19
-7.816121181e-19
0.0025
-1.107107038e-18
-3.519503063e-19
0.0025
-9.184180675e-19
-8.021946016e-19
0.0025
-1.289196196e-18
-7.974117835e-19
0.0025
-1.053522307e-18
-5.883559254e-19
0.0025
-9.176213539e-19
-8.864912321e-19
0.0025
-1.143508094e-18
-7.066612882e-19
0.0025
-1.134646214e-18
-7.968198388e-19
0.0025
-1.231790147e-18
-3.460882581e-19
0.0025
-9.889874771e-19
-7.176142599e-19
0.0025
-1.427414899e-18
-9.161231746e-19
0.0025
-9.619104091e-19
-5.607030933e-19
0.0025
-6.479100279e-19
-7.088471179e-19
0.0025
-1.131955519e-18
-2.781803974e-19
0.0025
-9.821214241e-19
-2.916811547e-19
0.0025
-1.02539702e-18
-1.004179673e-19
0.0025
-9.684043033e-19
-3.257278751e-19
0.0025
-8.187936153e-19
-4.25416519e-19
0.0025
-6.715546435e-19
-7.522952302e-19
0.0025
-1.020104079e-18
-1.250271975e-18
0.0025
-1.073145732e-18
2.239108287e-19
0.0025
-8.937396938e-19
4.069637808e-19
0.0025
-8.699455987e-19
1.099955315e-20
0.0025
-8.27255155e-19
2.891880938e-19
0.0025
-4.690000935e-19
-3.679734231e-19
0.0025
-5.731746646e-19
-8.520976456e-19
0.0025
-6.304751786e-19
-9.61479176e-19
0.0025
-9.923709867e-19
-1.622542651e-18
0.0025
3.01969138e-20
9.942027544e-19
0.0025
-8.313371365e-19
4.870297621e-19
0.0025
-3.216457599e-19
6.100658852e-19
0.0025
-6.783038179e-19
-1.949077152e-19
0.0025
-4.959343493e-19
-8.46662641e-20
0.0025
-2.41077516e-19
-2.264152215e-19
0.0025
-2.12621269e-19
-7.004153372e-19
0.0025
-3.768317833e-19
-7.957760484e-19
0.0025
-4.268495498e-19
-1.289247569e-18
0.0025
4.645163603e-19
2.888805184e-19
0.0025
-1.624097006e-19
4.084311118e-19
0.0025
-2.993819579e-19
1.293991699e-19
0.0025
-5.154318713e-19
-8.392755838e-20
0.0025
-2.837639716e-19
-1.309181607e-19
0.0025
-4.095005496e-19
-2.34860272e-19
0.0025
-2.388993333e-19
-2.750483539e-19
0.0025
-2.742154562e-19
-6.121645001e-19
0.0025
-1.175496756e-19
-7.400651311e-19
0.0025
4.468171124e-19
-6.359556594e-19
0.0025
-4.125617171e-19
7.346786156e-19
0.0025
4.405371224e-20
-6.837859376e-20
0.0025
1.163184401e-19
1.364770966e-19
0.0025
-7.966064129e-20
3.71936808e-19
0.0025
-2.806892957e-19
1.476904577e-19
0.0025
1.37887148e-19
6.497496079e-20
0.0025
-3.014164889e-19
-3.55632661e-19
0.0025
-3.071727387e-19
-5.095449365e-19
0.0025
-4.639715148e-20
-1.646757385e-19
0.0025
3.504443261e-19
-2.893288474e-19
0.0025
4.847814158e-19
-1.489893897e-19
0.0025
-1.350452665e-19
3.172639799e-19
0.0025
-5.478586538e-19
-1.301889502e-19
0.0025
-4.344873829e-19
1.957919059e-19
0.0025
3.025242759e-19
-7.648710518e-21
0.0025
-7.490236722e-20
3.910812736e-19
0.0025
2.760687535e-19
9.672730574e-21
0.0025
-2.295415067e-19
-4.845018279e-19
0.0025
-2.574343844e-21
-3.599115986e-19
0.0025
-3.869275338e-19
-4.003963334e-19
0.0025
-5.258968044e-19
-7.020306077e-19
0.0025
-1.447665751e-19
4.123332088e-19
0.0025
5.723231248e-19
-1.585668231e-19
0.0025
-3.879663793e-18
-3.850935063e-18
0.0025
-2.140178713e-18
-9.980212152e-19
0.0025
-1.725745272e-18
-1.734978409e-18
0.0025
-4.261422589e-19
-1.345533068e-19
0.0025
-7.679339628e-19
-4.009131182e-19
0.0025
-1.191917978e-18
-8.794294093e-19
0.0025
-1.484382122e-19
-6.728089774e-20
0.0025
-4.926939209e-19
-3.191054186e-19
0.0025
-6.232254937e-19
-2.959416979e-19
0.0025
-6.927168341e-19
-9.950242367e-20
0.0025
-6.457660085e-19
-6.238618249e-19
0.0025
-8.241898888e-19
-5.471526426e-19
0.0025
-9.169013526e-19
-4.582716919e-19
0.0025
-8.226623524e-19
-6.722812029e-19
0.0025
-1.274505844e-18
-5.580480698e-19
0.0025
-1.024725349e-18
-8.85613792e-19
0.0025
-1.167189272e-18
-4.259783603e-19
0.0025
-7.507685692e-19
-8.132617502e-19
0.0025
-1.151973784e-18
-7.33106458e-19
0.0025
-7.888039405e-19
-4.397861126e-19
0.0025
-8.378240655e-19
-5.373127608e-19
0.0025
-1.428979013e-18
-5.316853099e-19
0.0025
-9.335764209e-19
-5.089821253e-19
0.0025
-1.181111613e-18
-5.722939729e-19
0.0025
-1.186566424e-18
-6.890175602e-19
0.0025
-1.185289685e-18
-8.372431258e-19
0.0025
-9.165643125e-19
-8.414398452e-19
0.0025
-8.61799979e-19
-8.939237614e-19
0.0025
-2.061518661e-18
-7.621038209e-19
0.0025
-7.985669732e-19
8.981033713e-20
0.0025
-9.763403293e-19
-2.169327338e-19
0.0025
-1.047443929e-18
-9.419436573e-20
0.0025
-7.541009102e-19
-2.545733612e-19
0.0025
-7.259325842e-19
-9.211974384e-19
0.0025
-8.165049531e-19
-1.185523045e-18
0.0025
-9.182565182e-19
-1.284349384e-18
0.0025
-2.926866874e-19
7.771918319e-19
0.0025
-8.83109069e-19
2.178001942e-19
0.0025
-9.235943166e-19
-4.933749739e-20
0.0025
-7.881166021e-19
-8.836760512e-20
0.0025
-8.680656568e-19
-1.199737423e-19
0.0025
-6.978365806e-19
-6.368002295e-19
0.0025
-4.445528055e-19
-1.044627143e-18
0.0025
-6.519616502e-19
-1.055072561e-18
0.0025
-6.838437321e-19
-1.454760175e-18
0.0025
3.254299236e-19
6.153564824e-19
0.0025
-4.166513166e-19
5.398838868e-19
0.0025
-8.407936672e-19
-6.149893498e-20
0.0025
-1.033294545e-18
-4.788133984e-19
0.0025
-9.485162439e-19
-7.051611469e-19
0.0025
-8.63169162e-19
-7.130521276e-19
0.0025
-5.50654401e-19
-5.347867972e-19
0.0025
-3.629511383e-19
-1.010798001e-18
0.0025
-4.004703883e-19
-7.474487871e-19
0.0025
1.032351582e-19
-8.992390896e-19
0.0025
-3.475072058e-19
3.619471155e-19
0.0025
3.094949261e-19
1.900505962e-19
0.0025
-5.82084358e-20
3.135814886e-19
0.0025
-3.823659505e-19
-1.032063441e-20
0.0025
-3.308669429e-19
-1.488014969e-19
0.0025
-1.855231279e-19
-3.522327007e-19
0.0025
-6.379508535e-19
-3.833964236e-19
0.0025
-4.094827275e-19
-6.475759858e-19
0.0025
-8.053071693e-20
-6.110311325e-19
0.0025
-5.712911713e-20
-4.737939263e-19
0.0025
4.068953517e-19
-4.036308759e-19
0.0025
-5.972182574e-20
4.244423022e-19
0.0025
-5.092349209e-19
2.598246092e-19
0.0025
-7.604110135e-20
2.373141695e-19
0.0025
3.508925124e-19
2.022847895e-19
0.0025
5.993834428e-20
2.721547706e-19
0.0025
-1.517619581e-19
-8.178989717e-20
0.0025
8.919161073e-20
-4.840613242e-19
0.0025
-5.001400655e-19
-2.855572993e-19
0.0025
-1.377632694e-19
-2.576246846e-19
0.0025
-1.794091303e-19
-2.840098094e-19
0.0025
4.590767317e-19
-1.10759232e-19
0.0025
3.415089614e-19
-3.871069262e-19
0.0025
4.763022126e-19
9.968903119e-19
0.0025
-5.108496373e-20
-4.580016207e-20
0.0025
9.824279388e-20
5.120916302e-19
0.0025
1.204754561e-19
5.443698629e-19
0.0025
6.446313407e-19
3.086435974e-19
0.0025
-1.236230309e-19
-3.966624035e-19
0.0025
-4.796709411e-19
-3.289308223e-19
0.0025
-2.742521397e-19
-7.313447048e-19
0.0025
1.169038393e-19
1.336094412e-19
0.0025
-2.588533797e-19
3.411810271e-20
0.0025
3.380510534e-19
3.581078166e-20
0.0025
-3.470689946e-19
2.56899316e-19
0.0025
9.983159374e-19
3.354723032e-19
0.0025
-3.079023073e-18
-4.199390828e-18
0.0025
-2.760435135e-18
-1.925763534e-18
0.0025
-1.945806358e-18
-3.0740873e-18
0.0025
-1.403606474e-18
-8.312275417e-19
0.0025
-1.28165434e-18
-8.925134923e-19
0.0025
-1.817682556e-18
-1.722388108e-18
0.0025
-3.483167711e-19
-4.193680686e-19
0.0025
-7.739401282e-19
-5.471615736e-19
0.0025
-1.056242773e-18
-7.133605552e-19
0.0025
-6.367784305e-19
-5.793909591e-19
0.0025
-3.896117791e-19
-5.597462156e-19
0.0025
-6.691351751e-19
-4.670318756e-19
0.0025
-7.384271949e-19
-4.210075999e-19
0.0025
-7.989579793e-19
-6.004501948e-19
0.0025
-1.39274251e-18
-1.035463939e-18
0.0025
-1.088641986e-18
-9.254849397e-19
0.0025
-1.138839349e-18
-7.859494575e-19
0.0025
-7.892443419e-19
-5.637934045e-19
0.0025
-8.901023622e-19
-4.044505631e-19
0.0025
-8.014283745e-19
-6.224745594e-19
0.0025
-9.9134413e-19
-4.003945538e-19
0.0025
-1.197148895e-18
-6.264886675e-19
0.0025
-9.181293049e-19
-4.916779042e-19
0.0025
-9.411422579e-19
-6.022767445e-19
0.0025
-8.85437834e-19
-5.037485078e-19
0.0025
-8.488049254e-19
-4.498696537e-19
0.0025
-6.00174882e-19
-5.389750366e-19
0.0025
-9.117141208e-19
-3.00756059e-19
0.0025
-1.879856714e-18
-5.057753722e-19
0.0025
-7.853113663e-19
-3.377931694e-19
0.0025
-1.124360013e-18
-6.045729905e-19
0.0025
-9.505880042e-19
-4.01931903e-19
0.0025
-8.71088928e-19
-4.577537839e-19
0.0025
-9.611346088e-19
-7.987908788e-19
0.0025
-1.031664565e-18
-1.169668465e-18
0.0025
-9.285748675e-19
-6.857211802e-19
0.0025
-1.090307769e-18
4.839964833e-19
0.0025
-1.139406086e-18
-4.104628473e-19
0.0025
-9.997290663e-19
-2.941036932e-19
0.0025
-1.033917523e-18
-1.917694818e-19
0.0025
-9.333300934e-19
-1.451039426e-19
0.0025
-8.69958238e-19
-7.221369734e-19
0.0025
-7.348004121e-19
-1.000520354e-18
0.0025
-6.245564795e-19
-1.06781181e-18
0.0025
-8.314718227e-19
-1.022476457e-18
0.0025
-6.53719992e-19
2.452289927e-19
0.0025
-6.394811659e-19
4.359493347e-19
0.0025
-7.750098635e-19
7.798064759e-21
0.0025
-7.435326378e-19
-2.587413251e-20
0.0025
-1.190383832e-18
-4.672604619e-19
0.0025
-1.09150705e-18
-8.314187111e-19
0.0025
-5.225585514e-19
-7.158377492e-19
0.0025
-3.297580775e-19
-1.202439793e-18
0.0025
-6.099346767e-19
-1.134004258e-18
0.0025
-4.036484052e-19
-8.549936671e-19
0.0025
2.118888803e-19
4.246363892e-19
0.0025
-6.546208284e-20
3.284823616e-19
0.0025
-5.570739722e-19
3.005571069e-19
0.0025
-7.1020617e-19
-3.250734093e-19
0.0025
-6.938897366e-19
-3.077451462e-19
0.0025
-5.890465345e-19
-4.531985805e-19
0.0025
-5.895194989e-19
-4.299720061e-19
0.0025
-5.44703155e-19
-7.994713967e-19
0.0025
-3.42535492e-20
-7.854108066e-19
0.0025
-2.281306081e-19
-7.698673388e-19
0.0025
2.251778383e-20
-8.990404172e-19
0.0025
-3.484719129e-19
5.710697213e-19
0.0025
4.70129326e-21
1.309901559e-19
0.0025
4.973890093e-20
2.276971682e-19
0.0025
-5.978931065e-20
8.519378769e-20
0.0025
-8.506475975e-20
6.217383062e-20
0.0025
-3.480432653e-19
-2.136488164e-19
0.0025
-6.282611718e-20
-2.642538707e-19
0.0025
-4.884559492e-19
-3.537805654e-19
0.0025
-5.454547766e-20
-3.559030918e-19
0.0025
-6.557753095e-21
-3.675222487e-19
0.0025
1.449898053e-19
-2.877467642e-19
0.0025
4.584815158e-19
-2.645531097e-19
0.0025
1.565692793e-19
4.481268297e-19
0.0025
-5.388274612e-19
1.92285062e-19
0.0025
-7.132209813e-20
3.032027894e-19
0.0025
2.054793137e-19
2.104956077e-19
0.0025
1.852377252e-19
-2.565574935e-20
0.0025
-2.843131791e-19
-9.604804949e-20
0.0025
-6.061931144e-19
-5.842244189e-19
0.0025
-1.842355495e-21
-2.896253274e-19
0.0025
-1.582063958e-19
-4.784745523e-20
0.0025
-2.914217319e-19
-1.552684226e-19
0.0025
1.317026003e-19
-1.765353437e-19
0.0025
4.325953419e-19
1.386918089e-19
0.0025
1.039690663e-18
3.099136096e-19
0.0025
5.239826296e-19
4.715545714e-19
0.0025
-3.188985919e-19
3.142309941e-19
0.0025
5.417063129e-19
9.949108055e-20
0.0025
-2.639894629e-19
3.31495977e-19
0.0025
-3.316211413e-19
-4.639925432e-19
0.0025
-3.07951248e-19
-5.401754965e-19
0.0025
-2.661486299e-19
-5.288186978e-19
0.0025
-3.435700452e-19
9.778638212e-20
0.0025
2.908179651e-19
-2.481349624e-19
0.0025
-1.016606842e-19
2.252295419e-19
0.0025
-3.188943808e-20
1.170992513e-21
0.0025
-1.270163014e-20
3.252358836e-19
0.0025
1.291114255e-19
-1.042175934e-19
0.0025
5.106731638e-19
5.519734727e-19
0.0025
-1.961425161e-18
-3.392220607e-18
0.0025
-2.655608714e-18
-2.559921741e-18
0.0025
-1.577506754e-18
-3.464800898e-18
0.0025
-2.401925047e-18
-2.038132586e-18
0.0025
-1.706829575e-18
-1.671879176e-18
0.0025
-1.545033664e-18
-2.051378129e-18
0.0025
-7.047321821e-19
-3.923980269e-19
0.0025
-1.173436683e-18
-8.772499792e-19
0.0025
-1.360863902e-18
-1.395473672e-18
0.0025
-1.056846119e-18
-1.256870722e-18
0.0025
-1.580159049e-19
-5.025489217e-19
0.0025
-5.335228995e-19
-2.828844642e-19
0.0025
-6.445075054e-19
-6.659795539e-19
0.0025
-6.032569799e-19
-8.072036744e-19
0.0025
-1.430391479e-18
-1.117534417e-18
0.0025
-5.685370766e-19
-6.172983474e-19
0.0025
-7.149220371e-19
-8.551288449e-19
0.0025
-7.213489042e-19
-4.763890465e-19
0.0025
-8.597537052e-19
-2.311336535e-19
0.0025
-7.227876154e-19
-6.715587811e-19
0.0025
-4.838393299e-19
-3.680705013e-19
0.0025
-8.720424116e-19
-4.965723425e-19
0.0025
-9.705588785e-19
-7.046740348e-19
0.0025
-8.228903569e-19
-4.772560269e-19
0.0025
-7.869370377e-19
-3.54047678e-19
0.0025
-7.067089326e-19
-3.260776391e-19
0.0025
-4.428231315e-19
-2.055380457e-19
0.0025
-1.04669077e-18
1.436319805e-19
0.0025
-1.417384743e-18
-7.287088396e-19
0.0025
-8.968344858e-19
-4.317877886e-19
0.0025
-1.106373118e-18
-4.926646597e-19
0.0025
-8.575445165e-19
-6.445704099e-19
0.0025
-8.931419232e-19
-3.911532784e-19
0.0025
-7.092557566e-19
-4.363615948e-19
0.0025
-7.730659087e-19
-5.850906203e-19
0.0025
-9.044176509e-19
6.029025959e-20
0.0025
-1.546132776e-18
1.532399318e-21
0.0025
-1.155747098e-18
-6.141881888e-19
0.0025
-1.032626853e-18
-3.40444722e-19
0.0025
-9.660215801e-19
-5.214583229e-19
0.0025
-9.534489807e-19
-3.534286587e-19
0.0025
-5.725438227e-19
-5.052071565e-19
0.0025
-1.212743606e-18
-7.24181455e-19
0.0025
-6.846907808e-19
-6.913166018e-19
0.0025
-7.067029922e-19
-6.637632996e-19
0.0025
-9.344817887e-19
3.16724695e-19
0.0025
-7.705264166e-19
4.624154055e-19
0.0025
-9.805539583e-19
-3.526987659e-19
0.0025
-7.934375474e-19
-4.584198454e-20
0.0025
-1.163746119e-18
-3.777398054e-19
0.0025
-1.090611301e-18
-8.504784946e-19
0.0025
-9.30005281e-19
-9.047857173e-19
0.0025
-4.564714372e-19
-1.011278099e-18
0.0025
-5.172595352e-19
-6.882780622e-19
0.0025
-5.627679617e-19
-9.569408636e-19
0.0025
-1.228147456e-19
4.220094479e-19
0.0025
-5.911365326e-19
4.436539835e-19
0.0025
-6.990575316e-19
2.256060934e-19
0.0025
-6.607281277e-19
-3.2449932e-19
0.0025
-1.019874571e-18
-1.004766745e-19
0.0025
-8.215345995e-19
-5.189806772e-19
0.0025
-7.216754452e-19
-6.914369322e-19
0.0025
-4.465707966e-19
-1.072953133e-18
0.0025
-3.127958179e-19
-1.091259317e-18
0.0025
-2.933203729e-19
-7.231874882e-19
0.0025
-5.971918737e-19
-1.061279163e-18
0.0025
-1.309903681e-19
2.452421147e-19
0.0025
7.254130877e-20
2.212636566e-19
0.0025
-3.589922681e-20
2.518413741e-19
0.0025
-4.024817405e-19
-7.674365688e-21
0.0025
-4.376298383e-19
-1.548275257e-19
0.0025
-6.11116179e-19
-3.049204679e-19
0.0025
-6.240755723e-19
-2.750330495e-19
0.0025
-5.166099996e-19
-4.284074595e-19
0.0025
1.440815866e-19
-6.851683152e-19
0.0025
-1.432215873e-19
-6.618383732e-19
0.0025
-1.720381932e-19
-6.421473376e-19
0.0025
3.649951845e-19
-2.813822069e-19
0.0025
-2.786085185e-19
8.855309655e-19
0.0025
-2.679273867e-19
-7.790166058e-21
0.0025
-6.271286725e-21
1.675165577e-19
0.0025
7.697279908e-20
-9.42030655e-20
0.0025
-2.709549737e-19
-1.674850794e-19
0.0025
-4.157032045e-19
-1.385206778e-19
0.0025
-2.798645511e-19
-3.492886585e-19
0.0025
-1.556067624e-19
-2.721479039e-19
0.0025
-3.100968481e-19
-2.805205859e-19
0.0025
-9.590070618e-20
-3.28306423e-19
0.0025
1.50692541e-19
-2.226983841e-19
0.0025
2.450050694e-19
-4.558599117e-20
0.0025
7.275600413e-19
1.246426987e-19
0.0025
5.118399843e-20
4.713167108e-19
0.0025
1.423861808e-20
3.498979332e-19
0.0025
-1.460480519e-19
4.364000306e-20
0.0025
-3.900708861e-19
5.863213408e-20
0.0025
-1.854217665e-19
-2.87986005e-19
0.0025
-2.158986608e-19
-2.30196658e-19
0.0025
-4.10036167e-19
-3.801038869e-19
0.0025
-1.017388979e-19
-2.140269968e-19
0.0025
-7.186501078e-20
-1.437299937e-19
0.0025
-2.238175769e-19
-4.64287707e-21
0.0025
1.999422643e-20
2.205567435e-19
0.0025
5.830629241e-20
3.517070248e-20
0.0025
9.487304333e-19
-1.140412243e-19
0.0025
4.933590322e-19
5.077514678e-19
0.0025
-5.816362525e-19
-3.776943194e-19
0.0025
-2.559152962e-19
6.269611267e-19
0.0025
2.307899403e-19
-1.421112691e-19
0.0025
-7.459229472e-20
-4.520735459e-20
0.0025
-5.662509407e-19
1.106270143e-19
0.0025
1.222886885e-19
-2.281654868e-19
0.0025
3.495802937e-19
-3.259475649e-19
0.0025
-1.480107894e-19
-2.923056038e-19
0.0025
-5.327887764e-19
-3.252564944e-19
0.0025
5.221536341e-20
1.814635327e-19
0.0025
-9.953457051e-20
7.376551275e-19
0.0025
5.776967345e-19
6.032522195e-19
0.0025
4.241825173e-19
-1.262954389e-19
0.0025
-3.120699285e-19
-3.922234e-19
0.0025
-8.81788968e-20
4.078967387e-19
0.0025
-1.007776267e-18
-1.941052735e-18
0.0025
-1.656355431e-18
-2.404487847e-18
0.0025
-1.209532956e-18
-3.315673418e-18
0.0025
-2.492068071e-18
-2.483846587e-18
0.0025
-1.699007703e-18
-2.462769792e-18
0.0025
-1.266803198e-18
-2.675459445e-18
0.0025
-1.385399888e-18
-5.844310134e-19
0.0025
-1.436412198e-18
-1.557016882e-18
0.0025
-1.374466899e-18
-1.711798902e-18
0.0025
-1.070927936e-18
-2.039888193e-18
0.0025
-5.266433512e-19
-5.490431107e-19
0.0025
-7.35682015e-19
-2.685102397e-19
0.0025
-8.570860439e-19
-1.177467906e-18
0.0025
-5.382241793e-19
-9.996105331e-19
0.0025
-1.446859084e-18
-1.383703467e-18
0.0025
-1.472487427e-19
-5.07976762e-19
0.0025
-4.773619473e-19
-5.56537789e-19
0.0025
-5.33995136e-19
-3.401383111e-19
0.0025
-5.078691452e-19
-6.384904094e-19
0.0025
-7.933754659e-19
-5.133977133e-19
0.0025
-4.533330128e-19
-8.209844583e-19
0.0025
-6.269363649e-19
-4.207339469e-19
0.0025
-7.405778203e-19
-6.42768502e-19
0.0025
-3.697788351e-19
-6.072477495e-19
0.0025
-6.892158735e-19
-2.085734086e-19
0.0025
-6.843538131e-19
-7.464324593e-19
0.0025
-4.75684898e-19
-4.476099389e-19
0.0025
-1.266301286e-18
-3.746020804e-19
0.0025
-1.058771069e-18
-6.896580692e-19
0.0025
-8.337206548e-19
-6.596839076e-19
0.0025
-9.190013411e-19
-3.689477007e-19
0.0025
-1.004410102e-18
-4.343174445e-19
0.0025
-8.186799238e-19
-5.343535577e-19
0.0025
-7.281876934e-19
-4.567458571e-19
0.0025
-9.064263305e-19
-4.564976324e-20
0.0025
-1.13242661e-18
-2.266818639e-19
0.0025
-1.790697778e-18
-5.32147953e-19
0.0025
-6.641391466e-19
-4.988830775e-19
0.0025
-1.052464322e-18
-2.985189789e-19
0.0025
-9.741349428e-19