/*--------------------------------*- C++ -*----------------------------------*\
| =========                 |                                                 |
| \\      /  F ield         | OpenFOAM: The Open Source CFD Toolbox           |
|  \\    /   O peration     | Version:  2212                                  |
|   \\  /    A nd           | Website:  www.openfoam.com                      |
|    \\/     M anipulation  |                                                 |
\*---------------------------------------------------------------------------*/
FoamFile
{
    version     2.0;
    format      ascii;
    arch        "LSB;label=32;scalar=64";
    class       surfaceScalarField;
    location    "0.8";
    object      phiHbyA;
}
// * * * * * * * * * * * * * * * * * * * * * * * * * * * * * * * * * * * * * //

dimensions      [0 3 -1 0 0 0 0];

oriented        oriented;

internalField   nonuniform List<scalar> 
124950
(
0.0025
-4.50247336e-21
2.166589642e-19
0.0025
-5.713767225e-19
-2.76155604e-19
0.0025
-1.000663327e-19
2.852195685e-19
0.0025
-2.500675836e-19
-2.682800328e-19
0.0025
-1.11697153e-18
-9.262183768e-19
0.0025
-1.022369543e-18
-7.466378611e-20
0.0025
-4.898763263e-19
-6.827235185e-19
0.0025
-2.745016408e-19
1.614059172e-19
0.0025
-3.720847032e-19
1.144917862e-19
0.0025
2.697975731e-19
-2.925316755e-19
0.0025
-1.131813696e-18
-1.042834684e-18
0.0025
-1.626988323e-18
-7.759665667e-19
0.0025
-7.494751817e-19
-9.515136693e-19
0.0025
-9.841372854e-19
1.420211537e-20
0.0025
-6.46034739e-19
-1.169902772e-19
0.0025
5.493862343e-21
-5.529308223e-19
0.0025
-2.299804308e-19
3.890230979e-19
0.0025
-3.102647314e-19
7.329942258e-20
0.0025
-6.633955246e-21
-8.489978674e-20
0.0025
1.19504088e-19
-7.461437281e-20
0.0025
-1.070914211e-18
-9.713346175e-19
0.0025
-1.468984964e-18
-1.01902938e-18
0.0025
-1.0111206e-18
-1.016986728e-18
0.0025
-1.719481137e-18
-5.057948635e-19
0.0025
-7.11772758e-19
-6.011672268e-19
0.0025
-9.088277797e-19
-8.837216075e-19
0.0025
-5.870160574e-19
5.802755393e-19
0.0025
-4.525534568e-19
5.157710069e-20
0.0025
-3.138148163e-19
3.263725778e-20
0.0025
3.747359648e-19
-1.174571795e-19
0.0025
8.507018841e-20
4.891269556e-19
0.0025
-1.733850292e-19
4.062185353e-19
0.0025
-1.397231654e-19
1.399314005e-19
0.0025
2.440390365e-20
-4.387221128e-20
0.0025
5.965919481e-19
2.004902399e-19
0.0025
-1.19405439e-18
-8.789160133e-19
0.0025
-1.211476848e-18
-1.016051062e-18
0.0025
-1.155470134e-18
-9.705832047e-19
0.0025
-1.714563967e-18
-8.050766156e-19
0.0025
-8.493614316e-19
-8.415405841e-19
0.0025
-1.113388068e-18
-7.532815954e-19
0.0025
-1.301330172e-18
4.59163536e-19
0.0025
-5.2463349e-19
-2.988903798e-19
0.0025
-8.43051317e-19
-1.800709284e-19
0.0025
1.24744803e-19
-4.031225756e-19
0.0025
-1.044342047e-19
5.566630981e-19
0.0025
-2.925640322e-19
3.841560857e-19
0.0025
-3.969126426e-19
2.734231412e-19
0.0025
5.428063493e-21
2.011456642e-20
0.0025
6.081708966e-19
1.404483936e-19
0.0025
1.499234432e-19
2.113922896e-19
0.0025
1.482534396e-20
4.875823722e-19
0.0025
-2.231990844e-19
2.011487682e-19
0.0025
1.02548775e-19
3.364685679e-19
0.0025
2.726915389e-19
-3.943970101e-20
0.0025
4.315166632e-19
1.836131221e-19
0.0025
-1.095206387e-18
-7.664737817e-19
0.0025
-1.334710411e-18
-9.130319371e-19
0.0025
-1.270436138e-18
-8.712068673e-19
0.0025
-1.527371302e-18
-1.055189609e-18
0.0025
-1.08585615e-18
-8.545055069e-19
0.0025
-1.203424785e-18
-8.389597333e-19
0.0025
-1.695628635e-18
-2.507380223e-20
0.0025
-7.732524762e-19
-7.598193175e-19
0.0025
-9.487272088e-19
-4.668836301e-19
0.0025
-5.954677579e-19
-2.77517169e-19
0.0025
-7.998437078e-19
4.512651724e-19
0.0025
-6.300072832e-19
1.003194098e-19
0.0025
-6.478312362e-19
3.537123559e-20
0.0025
-6.694419872e-20
-7.820331642e-20
0.0025
8.639272178e-20
-1.431551138e-19
0.0025
1.66013299e-19
6.218241865e-19
0.0025
-1.172012096e-19
5.320987106e-19
0.0025
-3.325280054e-19
3.941804177e-19
0.0025
-6.738165707e-20
3.574440663e-19
0.0025
2.285839632e-19
-1.767812972e-19
0.0025
3.738821882e-19
1.490028314e-20
0.0025
-1.717694642e-19
2.676993873e-19
0.0025
9.310737375e-20
1.778490252e-19
0.0025
-5.35155484e-20
2.905637896e-19
0.0025
1.813529008e-20
8.751354796e-20
0.0025
-1.107179894e-19
2.653118875e-19
0.0025
2.863415849e-19
-3.505906688e-20
0.0025
1.427205513e-19
-2.712574627e-19
0.0025
-9.156482061e-19
-7.584351603e-19
0.0025
-1.054965652e-18
-6.706876027e-19
0.0025
-1.041419032e-18
-6.513169208e-19
0.0025
-1.515533091e-18
-1.044811193e-18
0.0025
-1.394319638e-18
-8.406898772e-19
0.0025
-1.381015274e-18
-1.005910882e-18
0.0025
-1.66622363e-18
-6.227389058e-19
0.0025
-1.16583705e-18
-1.047685533e-18
0.0025
-1.106833125e-18
-5.970733136e-19
0.0025
-9.716272371e-19
-4.146617112e-19
0.0025
-1.51126691e-18
2.398194747e-19
0.0025
-8.139000342e-19
2.947942995e-20
0.0025
-6.828691501e-19
-3.638393389e-19
0.0025
-2.578856251e-19
-2.888732976e-19
0.0025
-8.455582972e-19
-2.260866734e-19
0.0025
-2.305260778e-19
9.34601124e-19
0.0025
-5.843091151e-19
2.487535861e-19
0.0025
-5.337498176e-19
2.102157748e-19
0.0025
-1.822337584e-19
-6.725913517e-21
0.0025
-1.443862485e-19
-2.274932658e-19
0.0025
4.95462891e-20
-2.68031133e-19
0.0025
-1.813183249e-19
4.61842891e-19
0.0025
5.012809511e-20
4.235442728e-19
0.0025
-1.396291189e-19
4.122340781e-19
0.0025
-9.020587353e-20
3.097309831e-19
0.0025
-2.689898397e-19
1.127345429e-19
0.0025
2.092622121e-19
-9.579672672e-20
0.0025
2.527402151e-19
-4.090237019e-19
0.0025
-6.384862056e-20
4.533797034e-19
0.0025
4.073828944e-20
1.701270023e-19
0.0025
2.264135738e-19
2.186824203e-19
0.0025
-1.740768295e-19
6.266683781e-21
0.0025
-1.178467984e-19
1.374649872e-19
0.0025
-1.23459764e-19
-1.97363044e-20
0.0025
2.610875413e-19
-8.999776935e-21
0.0025
4.162749858e-19
-1.737864876e-19
0.0025
-5.268066797e-19
-4.376395887e-19
0.0025
-9.330449727e-19
-5.706668464e-19
0.0025
-7.822501797e-19
-5.772003997e-19
0.0025
-1.198462397e-18
-8.210077595e-19
0.0025
-1.166010017e-18
-5.910245102e-19
0.0025
-1.137212242e-18
-8.030841714e-19
0.0025
-1.405125786e-18
-8.976940601e-19
0.0025
-1.426623392e-18
-8.52734116e-19
0.0025
-1.446424924e-18
-8.500932115e-19
0.0025
-1.055089726e-18
-8.832313687e-19
0.0025
-1.752515553e-18
-3.372927661e-19
0.0025
-1.022642086e-18
-2.085148578e-19
0.0025
-9.353308657e-19
-6.15658478e-19
0.0025
-6.394899336e-19
-4.116583108e-19
0.0025
-8.303724225e-19
-2.148263677e-19
0.0025
-9.204782407e-19
8.434764441e-19
0.0025
-6.421462712e-19
1.886605826e-19
0.0025
-7.021700383e-19
1.13347079e-19
0.0025
-5.988075532e-21
-1.293964588e-19
0.0025
-5.996244461e-19
-2.846202151e-19
0.0025
-8.094554516e-19
-6.282394569e-19
0.0025
-2.245550189e-19
7.865854576e-19
0.0025
-2.217180755e-19
6.338456424e-19
0.0025
-4.131579116e-19
2.373945574e-19
0.0025
-2.019579316e-19
1.541873102e-19
0.0025
-3.969292111e-19
-2.835971829e-19
0.0025
-6.327245935e-20
-1.783074643e-19
0.0025
-1.286900183e-20
-5.031781685e-19
0.0025
-7.892334524e-20
5.895053221e-19
0.0025
4.548426646e-20
3.886625682e-19
0.0025
1.376172923e-19
4.460441979e-19
0.0025
-2.387172209e-19
1.135544682e-19
0.0025
-3.994554948e-19
7.990701344e-20
0.0025
-1.312474078e-19
-1.061068735e-19
0.0025
2.859438604e-19
-1.06054255e-19
0.0025
4.690512694e-19
-4.434370505e-19
0.0025
9.241347945e-20
7.404196965e-19
0.0025
1.760020749e-19
2.100251352e-19
0.0025
1.247689186e-19
6.390605525e-20
0.0025
-1.826887195e-19
2.007576349e-19
0.0025
3.76969802e-20
-7.495618941e-20
0.0025
-2.451926844e-19
1.296888743e-19
0.0025
-5.97054609e-20
-4.251494135e-19
0.0025
2.519562813e-19
-5.402486798e-20
0.0025
2.98613017e-19
5.504565117e-20
0.0025
-6.00147322e-19
-2.105526197e-19
0.0025
-5.224112925e-19
-3.837352838e-19
0.0025
-5.406579093e-19
-2.315640405e-19
0.0025
-1.013600504e-18
-6.831617127e-19
0.0025
-8.626477664e-19
-7.011307483e-19
0.0025
-7.764508652e-19
-4.914327134e-19
0.0025
-1.200531812e-18
-8.415329371e-19
0.0025
-1.365695182e-18
-6.206361182e-19
0.0025
-1.287172958e-18
-7.701194489e-19
0.0025
-8.71863799e-19
-9.408700033e-19
0.0025
-1.346945039e-18
-7.241945306e-19
0.0025
-1.19975151e-18
-5.56943174e-19
0.0025
-1.298620357e-18
-5.228347118e-19
0.0025
-9.773441454e-19
-7.524066013e-19
0.0025
-8.828106627e-19
-5.816714962e-19
0.0025
-1.45468047e-18
3.248736766e-19
0.0025
-7.18101288e-19
-2.204866185e-19
0.0025
-8.770475341e-19
2.396244282e-20
0.0025
-3.500090271e-19
-1.875178791e-19
0.0025
-7.060090984e-19
-3.658242137e-19
0.0025
-1.03168587e-18
-6.565042061e-19
0.0025
-5.217561485e-19
1.14557614e-18
0.0025
-4.811098591e-19
5.797447421e-19
0.0025
-6.474106103e-19
2.338836898e-19
0.0025
-3.887151043e-19
-3.049952049e-19
0.0025
-2.770496253e-19
-2.126514325e-19
0.0025
-5.716758394e-19
-2.836999503e-19
0.0025
-6.323677763e-19
-9.204871048e-19
0.0025
-1.411221071e-19
8.352576474e-19
0.0025
-1.973457556e-19
7.044425962e-19
0.0025
-9.832790765e-20
5.236602578e-19
0.0025
-1.219467242e-19
6.877746736e-20
0.0025
-4.052733864e-19
-7.548833732e-20
0.0025
-1.86435626e-19
-3.060304799e-19
0.0025
-3.390386556e-20
-2.51812376e-19
0.0025
2.065603228e-19
-6.822993817e-19
0.0025
2.096237424e-19
9.354295248e-19
0.0025
1.429124606e-19
1.620861266e-19
0.0025
2.854026089e-20
2.821166457e-19
0.0025
-3.084114605e-19
4.06525073e-19
0.0025
-1.56794868e-19
-3.816002802e-20
0.0025
-2.025985215e-19
-2.011981326e-21
0.0025
-7.473951546e-20
-4.118542915e-19
0.0025
1.383125801e-19
-2.423431585e-19
0.0025
4.441331399e-19
-2.42439807e-19
0.0025
-1.358966657e-19
2.929019825e-19
0.0025
1.483416673e-19
2.939663764e-19
0.0025
-1.390293068e-19
-1.018944018e-19
0.0025
-1.341154956e-19
1.321234513e-19
0.0025
1.620024373e-20
1.98665973e-19
0.0025
-3.526567464e-20
-4.360261347e-20
0.0025
-1.88305126e-19
-2.377220747e-19
0.0025
-6.240383441e-20
-2.632515744e-19
0.0025
-5.82347188e-20
-2.308543917e-19
0.0025
2.480866655e-19
-2.94227462e-20
0.0025
-1.698919182e-18
-8.38653362e-19
0.0025
-3.922409128e-19
-9.354888494e-20
0.0025
-6.692511062e-19
-3.343363037e-19
0.0025
-7.697861047e-19
-6.040814996e-19
0.0025
-5.311715621e-19
-5.764560286e-19
0.0025
-7.318735256e-19
-7.590025613e-20
0.0025
-7.447603701e-19
-4.164394315e-19
0.0025
-1.05881589e-18
-4.901353936e-19
0.0025
-8.171645213e-19
-8.770347053e-19
0.0025
-9.34449656e-19
-7.284592947e-19
0.0025
-1.118561256e-18
-7.669846283e-19
0.0025
-1.305504552e-18
-7.468304835e-19
0.0025
-1.347279318e-18
-5.849503449e-19
0.0025
-1.082222939e-18
-8.3713654e-19
0.0025
-9.602289783e-19
-7.784552858e-19
0.0025
-1.260586051e-18
-5.482449749e-19
0.0025
-9.235778604e-19
-3.77625235e-19
0.0025
-1.054146484e-18
-2.332566882e-19
0.0025
-8.494651283e-19
-3.365475213e-19
0.0025
-7.453198222e-19
-4.898889388e-19
0.0025
-8.703135372e-19
-7.948961573e-19
0.0025
-9.2761932e-19
7.429100892e-19
0.0025
-8.047171702e-19
9.847051616e-20
0.0025
-8.20463966e-19
1.679728471e-19
0.0025
-7.341141614e-19
-3.319796536e-19
0.0025
-3.948992584e-19
-1.937440826e-19
0.0025
-6.833545077e-19
-5.821047557e-19
0.0025
-8.749328377e-19
-1.0346895e-18
0.0025
-4.784366894e-19
9.063570987e-19
0.0025
-6.918000485e-19
7.005122132e-19
0.0025
-4.500786273e-19
4.42890283e-19
0.0025
-5.376562607e-19
5.792517455e-20
0.0025
-2.643282815e-19
-3.907928395e-19
0.0025
-2.212305601e-19
-3.033846314e-19
0.0025
-3.604223743e-19
-4.518604482e-19
0.0025
-3.078314858e-19
-1.241428339e-18
0.0025
3.303862836e-19
9.339903019e-19
0.0025
-3.101180142e-19
3.574711803e-19
0.0025
-1.346478716e-19
4.841542931e-19
0.0025
-2.345605906e-19
2.706134414e-19
0.0025
-2.706209307e-19
-1.115829617e-19
0.0025
-1.921110305e-19
-1.19713595e-19
0.0025
-9.394667579e-20
-3.929231467e-19
0.0025
-9.655891578e-20
-4.490959814e-19
0.0025
1.818292263e-19
-6.322515817e-19
0.0025
-1.27758391e-19
4.028855172e-19
0.0025
1.105464704e-19
3.588611555e-19
0.0025
-5.286966013e-20
6.77667177e-20
0.0025
-3.811642916e-19
2.827841635e-19
0.0025
-2.271346053e-20
2.384575541e-19
0.0025
-1.59583774e-20
-9.175120918e-20
0.0025
-2.834523437e-19
-2.728761246e-19
0.0025
-2.039101415e-19
-2.954751701e-19
0.0025
1.12283915e-19
-3.273911288e-19
0.0025
6.591395043e-19
-2.062967646e-19
0.0025
-2.132199313e-19
5.676674525e-19
0.0025
-1.547789634e-19
-1.149133434e-19
0.0025
-3.898702787e-19
-1.692478018e-19
0.0025
2.113836376e-20
2.351952387e-19
0.0025
-2.184399238e-19
2.857062843e-20
0.0025
1.333845594e-19
1.731365067e-19
0.0025
3.089219837e-20
-2.08171855e-19
0.0025
-2.0037961e-19
-5.064368217e-19
0.0025
-1.578835602e-19
3.5222816e-20
0.0025
9.684689992e-20
-1.394482085e-19
0.0025
3.483856488e-20
-1.247113227e-19
0.0025
-3.056752418e-18
-2.286541119e-18
0.0025
-1.139255523e-18
-3.374828639e-19
0.0025
-1.038226117e-18
-8.617837093e-19
0.0025
-3.393925516e-19
-2.64083807e-19
0.0025
-5.259013395e-19
-2.448699304e-19
0.0025
-6.781771389e-19
-8.518028124e-20
0.0025
-5.252824399e-19
-2.761003051e-19
0.0025
-6.65147525e-19
-4.962853396e-19
0.0025
-6.825119279e-19
-7.214449462e-19
0.0025
-9.915015531e-19
-3.475045531e-19
0.0025
-8.652925885e-19
-7.319392345e-19
0.0025
-1.240964671e-18
-7.110986048e-19
0.0025
-1.010449058e-18
-6.076898863e-19
0.0025
-9.046236646e-19
-8.076743181e-19
0.0025
-1.065962431e-18
-6.58639683e-19
0.0025
-1.103615785e-18
-7.652712939e-19
0.0025
-1.068679246e-18
-4.155561235e-19
0.0025
-1.105377887e-18
-6.432747129e-19
0.0025
-1.267478006e-18
-7.214659981e-19
0.0025
-9.780143771e-19
-5.495974569e-19
0.0025
-7.048195314e-19
-7.572912395e-19
0.0025
-1.340999627e-18
-1.59481628e-19
0.0025
-9.090854321e-19
-4.111599562e-19
0.0025
-9.314254047e-19
2.116175843e-20
0.0025
-1.006845196e-18
-3.079525388e-19
0.0025
-6.858754826e-19
-4.422702504e-19
0.0025
-6.883271266e-19
-7.740496549e-19
0.0025
-9.018787339e-19
-1.050099137e-18
0.0025
-9.291763603e-19
4.187564765e-19
0.0025
-9.929576811e-19
2.73953814e-19
0.0025
-8.494586779e-19
1.361346376e-19
0.0025
-8.05671258e-19
2.567941329e-19
0.0025
-3.204353983e-19
-3.822671922e-19
0.0025
-3.311344886e-19
-5.830526239e-19
0.0025
-6.109136167e-19
-8.169467831e-19
0.0025
-7.975802867e-19
-1.446520838e-18
0.0025
-1.491966851e-20
8.618651061e-19
0.0025
-8.766731814e-19
4.820817487e-19
0.0025
-6.324938812e-19
2.419097467e-19
0.0025
-6.559140641e-19
-7.296464442e-20
0.0025
-4.686029777e-19
-1.503774188e-19
0.0025
-3.04057325e-19
-1.584561003e-19
0.0025
-1.242642556e-19
-5.533674455e-19
0.0025
-2.653583425e-19
-7.602057862e-19
0.0025
-2.71349092e-19
-1.197855149e-18
0.0025
1.896310154e-19
3.767642075e-19
0.0025
-8.44813988e-20
5.552788945e-19
0.0025
-2.571284234e-19
1.099614978e-19
0.0025
-5.758208319e-19
1.045313138e-19
0.0025
-1.936735464e-19
-4.098856319e-20
0.0025
-7.91829598e-20
-2.071647386e-19
0.0025
-3.026462134e-19
-3.432787225e-19
0.0025
-2.787736101e-19
-4.705327523e-19
0.0025
3.246054762e-21
-4.87498869e-19
0.0025
4.812151149e-19
-5.328260769e-19
0.0025
-3.23430731e-19
7.763672801e-19
0.0025
-1.473088948e-19
2.06129476e-20
0.0025
-1.044471918e-19
-6.554585505e-20
0.0025
-3.544564183e-20
5.048856641e-19
0.0025
-2.84431135e-19
1.538367833e-19
0.0025
7.610355966e-20
3.870842443e-20
0.0025
-3.832613415e-20
-2.903103812e-19
0.0025
-2.778756188e-19
-4.147157997e-19
0.0025
-5.045294274e-20
-6.888472044e-20
0.0025
2.777684474e-19
-2.110289741e-19
0.0025
3.651825085e-19
-2.533874649e-19
0.0025
-1.642653903e-19
2.574772569e-19
0.0025
-2.769255831e-19
2.764242307e-19
0.0025
-3.262947396e-19
1.612888457e-19
0.0025
2.517078602e-19
1.04304847e-19
0.0025
3.073733045e-20
2.479531545e-19
0.0025
9.684139779e-20
-1.099044664e-19
0.0025
-1.269635374e-19
-2.751218911e-19
0.0025
-8.358558687e-20
-1.767043419e-19
0.0025
-1.081742491e-19
-2.706423638e-19
0.0025
-2.766523539e-19
-2.082603328e-19
0.0025
6.889789242e-20
2.624346303e-19
0.0025
2.773927381e-19
-7.742189642e-20
0.0025
-3.678154199e-18
-3.771060394e-18
0.0025
-2.141363027e-18
-8.508016381e-19
0.0025
-1.446479581e-18
-1.702345711e-18
0.0025
-4.497322457e-19
-7.302165505e-20
0.0025
-7.438849463e-19
-4.378347471e-19
0.0025
-1.144513656e-18
-7.166353285e-19
0.0025
-1.950408278e-19
-2.631656022e-19
0.0025
-5.999220525e-19
-3.967621269e-19
0.0025
-6.019572428e-19
-3.854212169e-19
0.0025
-7.293290191e-19
-2.257595852e-19
0.0025
-7.386738136e-19
-6.59618646e-19
0.0025
-9.750703253e-19
-6.287550832e-19
0.0025
-8.412650038e-19
-4.449434948e-19
0.0025
-7.738861475e-19
-7.50808392e-19
0.0025
-1.242070743e-18
-4.625317079e-19
0.0025
-1.145333045e-18
-8.570797611e-19
0.0025
-1.15595609e-18
-4.904515667e-19
0.0025
-8.533234287e-19
-8.301040276e-19
0.0025
-1.106408851e-18
-7.056278139e-19
0.0025
-8.271445211e-19
-3.834523938e-19
0.0025
-7.516885419e-19
-4.108110907e-19
0.0025
-1.347992759e-18
-5.538491725e-19
0.0025
-9.562802071e-19
-5.976126919e-19
0.0025
-1.037163412e-18
-3.163999343e-19
0.0025
-1.121402342e-18
-5.636183803e-19
0.0025
-1.094610789e-18
-7.451807651e-19
0.0025
-8.517115562e-19
-8.271622085e-19
0.0025
-8.560783272e-19
-7.860124624e-19
0.0025
-1.779506534e-18
-6.269850916e-19
0.0025
-9.901220915e-19
-1.236497866e-19
0.0025
-9.972856596e-19
-1.496949879e-19
0.0025
-1.007814294e-18
3.444507545e-20
0.0025
-6.816776984e-19
-3.064795817e-19
0.0025
-6.280669406e-19
-8.426071844e-19
0.0025
-7.329327576e-19
-1.054721328e-18
0.0025
-8.68519454e-19
-1.223709871e-18
0.0025
-5.632106453e-19
7.377703182e-19
0.0025
-9.735482776e-19
2.409377276e-19
0.0025
-8.666648038e-19
7.960173672e-20
0.0025
-7.638255316e-19
-4.355031547e-20
0.0025
-7.692705093e-19
-1.673818317e-19
0.0025
-5.823862057e-19
-4.424896772e-19
0.0025
-2.772470989e-19
-8.823686143e-19
0.0025
-6.146739529e-19
-1.032048765e-18
0.0025
-6.415200645e-19
-1.394092886e-18
0.0025
3.294213134e-19
4.845055748e-19
0.0025
-4.600441745e-19
5.373619535e-19
0.0025
-8.83703632e-19
-3.116937842e-20
0.0025
-9.456569715e-19
-1.924564931e-19
0.0025
-7.617126556e-19
-5.03000222e-19
0.0025
-5.679657107e-19
-3.725725437e-19
0.0025
-3.411137474e-19
-4.426915086e-19
0.0025
-3.29546728e-19
-9.50550121e-19
0.0025
-2.643193292e-19
-7.647387793e-19
0.0025
1.502508431e-19
-9.117042461e-19
0.0025
-2.258799634e-19
5.247886906e-19
0.0025
1.10837142e-19
2.470287458e-19
0.0025
-7.014976705e-20
2.549056227e-19
0.0025
-3.793506098e-19
2.295321447e-19
0.0025
-3.398619966e-19
-5.736859935e-20
0.0025
-9.392940263e-20
-2.694782108e-19
0.0025
-2.525743072e-19
-3.498894388e-19
0.0025
-3.714922542e-19
-4.301028288e-19
0.0025
-9.247461612e-21
-3.561893523e-19
0.0025
6.594213139e-20
-4.500856324e-19
0.0025
3.622117218e-19
-4.458181041e-19
0.0025
-2.201534833e-19
5.273534065e-19
0.0025
-3.595237965e-19
4.335283274e-19
0.0025
-1.826915315e-19
2.394333559e-19
0.0025
3.342690185e-19
1.97545566e-19
0.0025
-3.353473585e-20
3.510589386e-19
0.0025
-8.274595491e-20
-2.17863181e-19
0.0025
-8.239872509e-20
-3.840065528e-19
0.0025
-2.023172191e-19
-2.143063038e-19
0.0025
-1.320442908e-19
-2.67677997e-19
0.0025
-2.893092521e-19
-3.258446651e-19
0.0025
2.662661241e-19
1.395866223e-19
0.0025
5.770487655e-19
-1.836702938e-19
0.0025
2.119379835e-19
7.38757625e-19
0.0025
-2.779637415e-19
3.848542575e-20
0.0025
4.684827157e-20
4.029929734e-19
0.0025
1.540725028e-19
3.659568304e-19
0.0025
3.034483349e-19
9.192233745e-20
0.0025
-9.157647404e-20
-2.131939585e-19
0.0025
-3.558526548e-19
-1.012119577e-19
0.0025
-1.533352425e-19
-5.19173964e-19
0.0025
6.485608042e-20
4.219015371e-20
0.0025
-2.012733521e-19
5.011462522e-20
0.0025
1.095217515e-19
-2.369875143e-20
0.0025
-4.301548167e-20
3.081189756e-19
0.0025
6.738145721e-19
2.143431818e-19
0.0025
-3.096751439e-18
-4.004934528e-18
0.0025
-2.900078956e-18
-1.825209315e-18
0.0025
-1.724260541e-18
-2.910296146e-18
0.0025
-1.21615751e-18
-6.231020499e-19
0.0025
-1.222087714e-18
-9.458819288e-19
0.0025
-1.624473494e-18
-1.462867776e-18
0.0025
-1.623549505e-19
-2.601375882e-19
0.0025
-6.999655075e-19
-4.670260159e-19
0.0025
-9.151365699e-19
-6.342980058e-19
0.0025
-6.724652289e-19
-6.688424775e-19
0.0025
-4.787028453e-19
-6.68823205e-19
0.0025
-6.289137531e-19
-4.412769146e-19
0.0025
-7.422436572e-19
-3.604749529e-19
0.0025
-6.276775624e-19
-5.534654933e-19
0.0025
-1.25632198e-18
-6.392673886e-19
0.0025
-1.036600396e-18
-9.046846808e-19
0.0025
-1.174847908e-18
-6.475086737e-19
0.0025
-7.200815541e-19
-5.976398604e-19
0.0025
-8.616406665e-19
-3.959558567e-19
0.0025
-6.656302742e-19
-4.453622659e-19
0.0025
-8.765880672e-19
-2.344108736e-19
0.0025
-1.144934857e-18
-5.162891801e-19
0.0025
-9.566486903e-19
-5.414938083e-19
0.0025
-9.15251774e-19
-6.053123657e-19
0.0025
-9.741860372e-19
-6.095474719e-19
0.0025
-9.365176006e-19
-4.416023908e-19
0.0025
-6.865819185e-19
-4.3250722e-19
0.0025
-8.449926634e-19
-1.880493634e-19
0.0025
-1.8798722e-18
-6.810350671e-19
0.0025
-8.574434523e-19
-3.418736369e-19
0.0025
-1.0625137e-18
-4.952726427e-19
0.0025
-9.532334945e-19
-3.648102445e-19
0.0025
-8.942023679e-19
-3.680630739e-19
0.0025
-8.728273634e-19
-8.030648082e-19
0.0025
-9.853633752e-19
-1.092552819e-18
0.0025
-9.531560198e-19
-7.158333742e-19
0.0025
-1.252006074e-18
4.388736758e-19
0.0025
-1.038655755e-18
-4.767050661e-19
0.0025
-1.04406628e-18
-6.613649239e-20
0.0025
-8.941333989e-19
-1.409850203e-19
0.0025
-9.715554379e-19
-2.898640234e-19
0.0025
-8.903888866e-19
-6.050446204e-19
0.0025
-5.984326695e-19
-9.551326679e-19
0.0025
-6.263983153e-19
-9.345315546e-19
0.0025
-7.085759498e-19
-1.107083007e-18
0.0025
-1.902123545e-19
4.540533681e-19
0.0025
-6.609803937e-19
4.702274821e-19
0.0025
-8.54308458e-19
-4.501069015e-20
0.0025
-8.68351114e-19
-4.694935201e-20
0.0025
-1.231985271e-18
-4.943923509e-19
0.0025
-9.724357026e-19
-6.774347269e-19
0.0025
-4.474347446e-19
-7.529658457e-19
0.0025
-3.618389959e-19
-1.16529754e-18
0.0025
-5.585285226e-19
-9.988971832e-19
0.0025
-2.863610866e-19
-1.038477791e-18
0.0025
9.335236062e-20
3.859979064e-19
0.0025
3.047350444e-20
4.442438049e-19
0.0025
-4.821834534e-19
3.441863192e-19
0.0025
-7.39816479e-19
-1.65198305e-19
0.0025
-7.327339638e-19
-3.085723989e-19
0.0025
-6.052311238e-19
-4.365431726e-19
0.0025
-6.181402237e-19
-5.753080163e-19
0.0025
-5.725938002e-19
-7.522437305e-19
0.0025
-1.386935313e-20
-8.059167001e-19
0.0025
-9.519545027e-20
-7.205252931e-19
0.0025
1.31439857e-19
-6.832810058e-19
0.0025
-3.18545824e-19
5.111688932e-19
0.0025
-9.646714279e-20
3.345568588e-19
0.0025
-2.330329825e-21
2.048168086e-19
0.0025
-3.593513555e-20
6.315030253e-20
0.0025
-3.439456833e-19
1.032294957e-19
0.0025
-4.074155515e-19
-2.733801239e-19
0.0025
-1.137181893e-19
-4.435922822e-19
0.0025
-3.159247992e-19
-2.66859138e-19
0.0025
-1.471067341e-19
-3.344373985e-19
0.0025
-1.686505848e-19
-3.516870276e-19
0.0025
2.601879811e-19
-1.883036959e-19
0.0025
5.555827835e-19
-2.474792124e-19
0.0025
1.77953576e-19
8.04524649e-19
0.0025
-4.455936484e-19
1.903549478e-19
0.0025
-9.724480612e-20
3.526241052e-19
0.0025
1.461310129e-19
2.885138896e-19
0.0025
2.513717367e-19
1.094457338e-19
0.0025
-3.215889441e-19
-1.97773048e-19
0.0025
-5.028288259e-19
-4.598980667e-19
0.0025
-1.491611106e-19
-4.25952311e-19
0.0025
-6.796152852e-20
-3.559773785e-20
0.0025
-2.633997236e-19
-8.137434353e-20
0.0025
1.375314133e-19
-5.792456548e-20
0.0025
1.080496583e-19
9.286999033e-20
0.0025
1.02639379e-18
2.186488714e-19
0.0025
3.171612971e-19
5.016843957e-19
0.0025
-2.943600732e-19
4.315064452e-19
0.0025
3.478173984e-19
5.897116494e-20
0.0025
-2.46805244e-19
2.721897518e-19
0.0025
-1.789172873e-19
-1.514520099e-19
0.0025
-1.198724605e-19
-3.057498926e-19
0.0025
-1.831449142e-19
-3.486096148e-19
0.0025
-2.672615405e-19
-2.436319484e-20
0.0025
7.741454448e-20
-1.885453198e-19
0.0025
-2.699512952e-21
2.504785912e-19
0.0025
3.494311639e-20
2.260913737e-19
0.0025
4.319898231e-20
2.078060526e-19
0.0025
2.645154478e-19
-4.942529672e-20
0.0025
3.61916813e-19
4.560632032e-19
0.0025
-2.063548929e-18
-3.317793926e-18
0.0025
-2.634010567e-18
-2.461195187e-18
0.0025
-1.689843486e-18
-3.433402919e-18
0.0025
-2.092474687e-18
-1.738371796e-18
0.0025
-1.647057001e-18
-1.743147378e-18
0.0025
-1.558304172e-18
-2.153059091e-18
0.0025
-6.656227662e-19
-3.309828036e-19
0.0025
-1.133299417e-18
-9.267267838e-19
0.0025
-1.297405644e-18
-1.189508508e-18
0.0025
-9.159603761e-19
-1.317527344e-18
0.0025
-2.56700779e-19
-4.970038434e-19
0.0025
-5.018222741e-19
-3.199716165e-19
0.0025
-6.877555946e-19
-6.351741e-19
0.0025
-5.104078722e-19
-7.538264738e-19
0.0025
-1.323344164e-18
-1.044275102e-18
0.0025
-6.187399263e-19
-7.33724053e-19
0.0025
-8.108707253e-19
-7.959308555e-19
0.0025
-6.476844537e-19
-3.146013617e-19
0.0025
-7.623151298e-19
-3.313518507e-19
0.0025
-6.987100972e-19
-5.612073929e-19
0.0025
-6.319217324e-19
-4.3292287e-19
0.0025
-8.412024661e-19
-4.687544629e-19
0.0025
-9.117941602e-19
-5.349116362e-19
0.0025
-8.275773004e-19
-6.226824359e-19
0.0025
-8.293542029e-19
-3.747104802e-19
0.0025
-7.074047455e-19
-3.158280568e-19
0.0025
-4.738877423e-19
-1.951668995e-19
0.0025
-1.087079714e-18
-6.662189756e-21
0.0025
-1.49753203e-18
-6.051063808e-19
0.0025
-8.315302839e-19
-3.738154912e-19
0.0025
-1.037104302e-18
-4.821938675e-19
0.0025
-8.181476192e-19
-5.266937651e-19
0.0025
-7.582145174e-19
-3.805335016e-19
0.0025
-7.946159179e-19
-3.81706993e-19
0.0025
-9.1128616e-19
-5.711650514e-19
0.0025
-9.361410527e-19
-4.598111475e-20
0.0025
-1.505001897e-18
1.719391988e-19
0.0025
-8.110171475e-19
-6.073374374e-19
0.0025
-1.09382772e-18
-2.577837903e-19
0.0025
-9.308146833e-19
-4.411322909e-19
0.0025
-9.128900976e-19
-5.234101592e-19
0.0025
-8.553294731e-19
-5.005333092e-19
0.0025
-1.115488584e-18
-6.467124754e-19
0.0025
-6.380362566e-19
-7.526759992e-19
0.0025
-7.627753273e-19
-6.350915668e-19
0.0025
-7.456472405e-19
3.726573708e-19
0.0025
-8.305781361e-19
3.484111958e-19
0.0025
-9.275656186e-19
-9.698807436e-20
0.0025
-8.100312699e-19
-7.384773422e-20
0.0025
-1.102752205e-18
-3.687138491e-19
0.0025
-9.750506085e-19
-6.457964208e-19
0.0025
-8.628462087e-19
-9.157312302e-19
0.0025
-3.764368935e-19
-9.800975407e-19
0.0025
-6.212010674e-19
-7.873409578e-19
0.0025
-4.548187305e-19
-8.418349336e-19
0.0025
-1.955348592e-19
3.883347867e-19
0.0025
-3.719511237e-19
5.02335142e-19
0.0025
-6.961537483e-19
2.773549559e-19
0.0025
-6.354691048e-19
-2.324015749e-19
0.0025
-1.031520082e-18
-1.644617883e-19
0.0025
-8.999892629e-19
-5.00938682e-19
0.0025
-7.385460865e-19
-7.970307741e-19
0.0025
-4.399127352e-19
-8.844531565e-19
0.0025
-1.935190123e-19
-1.022802934e-18
0.0025
-3.085649106e-19
-7.695438889e-19
0.0025
-3.433902488e-19
-9.185767167e-19
0.0025
-2.1897707e-19
3.034128477e-19
0.0025
5.118788257e-20
2.338744739e-19
0.0025
-4.311426548e-20
2.989142805e-19
0.0025
-3.241475277e-19
1.31235415e-19
0.0025
-4.882054709e-19
-6.476584284e-20
0.0025
-5.590714707e-19
-2.157331975e-19
0.0025
-5.677282992e-19
-4.420236399e-19
0.0025
-5.668853046e-19
-5.85021678e-19
0.0025
-8.765094335e-20
-6.416434011e-19
0.0025
-5.880658363e-20
-5.331336315e-19
0.0025
4.025966068e-20
-5.675980415e-19
0.0025
3.33483471e-19
-2.96288397e-19
0.0025
-2.648458303e-19
8.16199532e-19
0.0025
-2.475667227e-19
3.011894193e-19
0.0025
-2.026840313e-21
1.690036357e-19
0.0025
4.927100586e-20
-5.652085871e-20
0.0025
-1.873751067e-19
-8.996952597e-20
0.0025
-6.381242397e-19
-2.143665838e-19
0.0025
-3.553514357e-19
-4.710306408e-19
0.0025
-1.489024053e-19
-2.579101471e-19
0.0025
-2.102493687e-19
-2.234890805e-19
0.0025
-1.528961504e-19
-1.771957321e-19
0.0025
1.238751791e-19
-1.927824523e-19
0.0025
2.906761085e-19
-3.638733517e-20
0.0025
8.168564841e-19
1.561218934e-19
0.0025
2.867298859e-19
4.855857249e-19
0.0025
-3.057010881e-19
4.551150766e-19
0.0025
5.433301842e-20
1.107240948e-19
0.0025
-3.983308182e-19
1.741565851e-19
0.0025
-2.072638982e-19
-2.483307668e-19
0.0025
-2.452108944e-19
-3.131557703e-19
0.0025
-4.285460458e-19
-4.504155404e-19
0.0025
-1.930126151e-19
-2.098553553e-19
0.0025
-7.868514074e-20
-1.107085288e-19
0.0025
-1.128009621e-19
7.4377575e-20
0.0025
5.314260782e-20
3.136795729e-19
0.0025
3.86471566e-20
1.113702787e-19
0.0025
7.462061443e-19
-1.194066365e-19
0.0025
5.657024215e-19
5.306912116e-19
0.0025
-1.687879465e-19
-5.094088887e-20
0.0025
-1.658025796e-19
6.946596251e-19
0.0025
2.057515063e-19
1.212023548e-20
0.0025
-7.372978908e-20
-1.055738462e-20
0.0025
-4.551105266e-19
-4.841562592e-20
0.0025
-1.96590631e-19
-3.18387809e-19
0.0025
2.130111551e-19
-2.480145838e-19
0.0025
-1.672831756e-19
-2.434496963e-19
0.0025
-2.854747873e-19
-1.282000813e-19
0.0025
-2.372128661e-20
1.288338483e-19
0.0025
-7.845213308e-20
4.795339567e-19
0.0025
1.614877369e-19
2.025059194e-19
0.0025
1.967666607e-19
5.295948048e-20
0.0025
-5.220328352e-20
-2.222839212e-19
0.0025
2.911467492e-20
3.857866371e-19
0.0025
-1.05082872e-18
-2.149274675e-18
0.0025
-1.655397994e-18
-2.332965822e-18
0.0025
-1.313628772e-18
-3.285120681e-18
0.0025
-2.286246835e-18
-2.357521436e-18
0.0025
-1.649997729e-18
-2.232448654e-18
0.0025
-1.179523803e-18
-2.681119381e-18
0.0025
-1.411297305e-18
-5.739615219e-19
0.0025
-1.417120462e-18
-1.540004243e-18
0.0025
-1.226413485e-18
-1.688143186e-18
0.0025
-9.590672263e-19
-1.988649008e-18
0.0025
-4.832600179e-19
-4.83109994e-19
0.0025
-6.922731767e-19
-3.060263063e-19
0.0025
-8.049880395e-19
-1.109849376e-18
0.0025
-6.131125551e-19
-1.152789473e-18
0.0025
-1.399062369e-18
-1.380654556e-18
0.0025
-3.543606321e-19
-5.170117536e-19
0.0025
-5.900665416e-19
-6.492071239e-19
0.0025
-5.578766932e-19
-3.128406369e-19
0.0025
-5.546250141e-19
-6.279123215e-19
0.0025
-7.433254708e-19
-6.535797555e-19
0.0025
-5.599059219e-19
-8.430780796e-19
0.0025
-6.43734863e-19
-4.810856125e-19
0.0025
-7.345896917e-19
-5.532190317e-19
0.0025
-4.353760424e-19
-5.617303228e-19
0.0025
-7.318216812e-19
-3.721238827e-19
0.0025
-6.502475147e-19
-6.177719105e-19
0.0025
-4.332982193e-19
-2.915738689e-19
0.0025
-1.193251717e-18
-2.163874714e-19
0.0025
-1.211421247e-18
-6.405711148e-19
0.0025
-7.818316182e-19
-5.064553761e-19
0.0025
-8.7677049e-19
-3.565821922e-19
0.0025
-8.51305128e-19
-4.00787542e-19
0.0025
-8.069043843e-19
-4.365672898e-19
0.0025
-6.413468207e-19
-3.569160339e-19
0.0025
-8.480322642e-19
-3.290277497e-20
0.0025
-1.010138747e-18
-6.496181179e-20
0.0025
-1.589141626e-18
-3.250923534e-19
0.0025
-6.606299523e-19
-5.093973379e-19
0.0025
-1.055646678e-18
-3.083656372e-19
0.0025
-9.251835773e-19
-5.451948105e-19
0.0025
-6.120154705e-19
-5.021334987e-19