/*--------------------------------*- C++ -*----------------------------------*\
| =========                 |                                                 |
| \\      /  F ield         | OpenFOAM: The Open Source CFD Toolbox           |
|  \\    /   O peration     | Version:  2212                                  |
|   \\  /    A nd           | Website:  www.openfoam.com                      |
|    \\/     M anipulation  |                                                 |
\*---------------------------------------------------------------------------*/
FoamFile
{
    version     2.0;
    format      ascii;
    arch        "LSB;label=32;scalar=64";
    class       volVectorField;
    location    "0.8";
    object      U;
}
// * * * * * * * * * * * * * * * * * * * * * * * * * * * * * * * * * * * * * //

dimensions      [0 1 -1 0 0 0 0];

internalField   nonuniform List<vector> 
42875
(
(1 -9.449435799e-19 1.992233847e-16)
(1 -1.740566381e-16 -4.27251555e-17)
(1 -5.160523814e-17 7.203547566e-17)
(1 -9.310316138e-17 -6.06535569e-17)
(1 -3.564183264e-16 -3.988398075e-16)
(1 -4.246858333e-16 -5.01331963e-17)
(1 -1.738644311e-16 -2.915208731e-16)
(1 -1.67255015e-16 6.504649623e-17)
(1 -1.95602548e-16 7.806602287e-17)
(1 1.618590457e-16 -2.748987337e-16)
(1 -3.882172605e-16 -4.048525755e-16)
(1 -5.198294618e-16 -3.019497402e-16)
(1 -2.571617754e-16 -3.506705678e-16)
(1 -5.611213891e-16 -3.453706661e-17)
(1 -3.58948458e-16 -1.127147353e-16)
(1 2.38267811e-18 -4.151512229e-16)
(1 -1.416788737e-16 1.358063259e-16)
(1 -1.774247091e-16 7.594809095e-17)
(1 4.817753323e-17 -7.842163532e-17)
(1 7.482365714e-17 -6.863340576e-17)
(1 -4.505256724e-16 -3.626404567e-16)
(1 -5.611790636e-16 -3.751962543e-16)
(1 -3.882210151e-16 -4.454729376e-16)
(1 -7.642553358e-16 -2.365565154e-16)
(1 -3.481834697e-16 -3.662231631e-16)
(1 -3.948428536e-16 -3.923314983e-16)
(1 -3.367067604e-16 2.650548794e-16)
(1 -2.74317219e-16 -2.405270226e-17)
(1 -8.642713927e-17 -8.018577661e-17)
(1 2.013759589e-16 -1.818010411e-16)
(1 -3.306733723e-17 1.687374345e-16)
(1 -1.015339138e-16 2.482936543e-16)
(1 -5.719580852e-17 -5.596967367e-17)
(1 -6.509379918e-19 -2.708807035e-17)
(1 2.750902155e-16 -2.957910254e-17)
(1 -4.553570708e-16 -3.619630036e-16)
(1 -4.423971121e-16 -3.5031841e-16)
(1 -4.609222199e-16 -4.305583881e-16)
(1 -6.778878356e-16 -2.291649494e-16)
(1 -3.9871351e-16 -4.381460181e-16)
(1 -4.071745741e-16 -3.190082588e-16)
(1 -6.856066188e-16 2.26867956e-16)
(1 -2.612526864e-16 -2.441807773e-16)
(1 -3.985882532e-16 -1.632413306e-16)
(1 2.800773065e-17 -2.999074084e-16)
(1 -1.636236808e-16 2.02958403e-16)
(1 -1.123694234e-16 1.8922602e-16)
(1 -2.465436915e-16 5.099787126e-17)
(1 1.110265242e-16 4.458342837e-17)
(1 2.441085406e-16 4.40901765e-17)
(1 2.142347941e-16 7.854642892e-17)
(1 -7.998676445e-17 2.220455876e-16)
(1 -6.329141521e-17 9.281773456e-17)
(1 1.667473359e-19 1.39924345e-16)
(1 2.818071587e-16 7.872082441e-18)
(1 1.610817751e-16 2.5982987e-16)
(1 -4.62490614e-16 -3.52999231e-16)
(1 -5.500157502e-16 -3.602062985e-16)
(1 -4.666323729e-16 -3.641486877e-16)
(1 -5.145262648e-16 -3.490880831e-16)
(1 -4.507879855e-16 -3.915255422e-16)
(1 -4.394686273e-16 -3.113861255e-16)
(1 -6.820019595e-16 4.000565285e-17)
(1 -2.999131517e-16 -3.432165804e-16)
(1 -4.876720228e-16 -2.149940987e-16)
(1 -2.358938756e-16 -1.987304676e-16)
(1 -4.869727231e-16 2.409475663e-16)
(1 -2.379595223e-16 1.66920007e-17)
(1 -3.446845208e-16 -7.335993699e-17)
(1 -1.391190702e-17 -1.921814325e-17)
(1 -1.634045145e-17 -4.531264146e-17)
(1 8.78889087e-17 2.781926066e-16)
(1 -1.227784854e-16 2.179188389e-16)
(1 -1.279783636e-16 8.73503294e-17)
(1 -9.433826385e-17 1.730046843e-16)
(1 2.520688538e-16 -3.841936159e-17)
(1 1.133035315e-16 1.103286096e-16)
(1 2.583239293e-20 6.889368158e-18)
(1 8.601854093e-17 1.020010313e-16)
(1 -1.276346115e-16 1.922598499e-16)
(1 1.419650378e-16 3.476113497e-17)
(1 -3.753613669e-17 1.802746556e-16)
(1 2.211031707e-16 -1.17806523e-17)
(1 -1.411306478e-17 -3.811555482e-17)
(1 -4.068022109e-16 -2.975724654e-16)
(1 -4.843161001e-16 -2.949993117e-16)
(1 -4.093554857e-16 -3.445040575e-16)
(1 -6.00796035e-16 -4.061973893e-16)
(1 -5.892711635e-16 -4.154199256e-16)
(1 -5.348873836e-16 -3.570681075e-16)
(1 -7.281462645e-16 -2.399931528e-16)
(1 -4.411594028e-16 -5.210572938e-16)
(1 -5.306333826e-16 -2.55847042e-16)
(1 -3.760948365e-16 -3.332782814e-16)
(1 -6.607566498e-16 9.923885071e-17)
(1 -3.729408795e-16 -6.91977765e-17)
(1 -3.028491676e-16 -2.133174375e-16)
(1 -2.845253854e-16 -1.233422473e-16)
(1 -3.435423579e-16 1.806572607e-17)
(1 -1.983163969e-16 4.284499119e-16)
(1 -3.085598729e-16 1.262649791e-16)
(1 -2.358734718e-16 -6.968790971e-19)
(1 -1.056870325e-16 4.259979455e-17)
(1 -2.804367398e-17 -8.450833572e-17)
(1 -1.62823106e-17 -1.630519555e-16)
(1 6.726829704e-17 1.409727481e-16)
(1 3.417556851e-17 2.001246623e-16)
(1 -1.619163044e-16 1.746653729e-16)
(1 1.263662423e-17 2.421172583e-16)
(1 -4.502605075e-17 7.527664001e-17)
(1 1.399364378e-16 -7.850045537e-17)
(1 3.417861063e-17 -9.118967904e-17)
(1 -2.692530412e-16 1.407971333e-16)
(1 1.5158508e-17 7.918791139e-17)
(1 1.272887724e-16 7.250237472e-17)
(1 -6.972563293e-17 5.988176317e-17)
(1 -9.86557874e-17 1.990701544e-17)
(1 1.624878513e-17 9.204925529e-17)
(1 9.80332548e-17 3.876793841e-17)
(1 2.371890692e-16 -2.720392418e-16)
(1 -3.004193908e-16 -1.416272626e-16)
(1 -3.718869933e-16 -1.847730673e-16)
(1 -2.90620977e-16 -3.518116324e-16)
(1 -4.38519752e-16 -3.709153492e-16)
(1 -4.993238504e-16 -3.250114731e-16)
(1 -4.640609231e-16 -2.947592907e-16)
(1 -7.178012146e-16 -3.19943943e-16)
(1 -5.812742672e-16 -4.615989673e-16)
(1 -6.617051808e-16 -2.886386675e-16)
(1 -3.628463745e-16 -5.717095895e-16)
(1 -6.609609321e-16 -1.500724184e-16)
(1 -6.02865154e-16 -2.68445005e-16)
(1 -3.981880119e-16 -3.432397691e-16)
(1 -4.757588121e-16 -2.504960227e-16)
(1 -3.251901064e-16 -5.273420876e-17)
(1 -6.384885966e-16 4.037894742e-16)
(1 -3.207498137e-16 4.890335907e-17)
(1 -2.918502961e-16 1.196134597e-16)
(1 3.629635906e-17 -5.180263905e-17)
(1 -3.79042334e-16 -1.218850332e-16)
(1 -3.493125502e-16 -2.894040275e-16)
(1 3.607946854e-17 3.38161871e-16)
(1 -1.364342159e-16 2.836806511e-16)
(1 -2.401885348e-16 6.320861165e-17)
(1 -7.802258376e-17 1.757056499e-16)
(1 -1.587491866e-16 -8.981560067e-17)
(1 -2.054917719e-17 -1.551144367e-16)
(1 -2.166057674e-17 -1.808191102e-16)
(1 -2.03372669e-16 2.681047833e-16)
(1 3.450141343e-17 1.883944748e-16)
(1 3.575406407e-17 1.152084007e-16)
(1 -1.041107615e-16 1.442975264e-16)
(1 -1.642583227e-16 3.043288249e-17)
(1 -2.574582496e-17 -4.169009817e-17)
(1 1.202752386e-16 -1.329006505e-17)
(1 1.903691536e-16 -3.209617602e-16)
(1 1.179017998e-16 3.318248844e-16)
(1 7.645608639e-18 2.262465612e-16)
(1 8.049006418e-17 -4.093919922e-17)
(1 -1.113286808e-16 8.952528063e-17)
(1 -4.042934365e-17 -9.702787711e-17)
(1 -1.404230662e-16 9.982311505e-17)
(1 8.137253553e-17 -9.948888925e-17)
(1 1.571142131e-16 -3.947426548e-17)
(1 2.240141876e-16 2.398489317e-17)
(1 -3.295865455e-16 -2.408708571e-18)
(1 -1.668388827e-16 -7.667804191e-17)
(1 -2.470190679e-16 -1.396518554e-16)
(1 -4.160920424e-16 -2.916001566e-16)
(1 -3.533764083e-16 -3.015076656e-16)
(1 -3.617307098e-16 -1.529284701e-16)
(1 -6.107680962e-16 -2.918056123e-16)
(1 -5.064825509e-16 -3.743565639e-16)
(1 -5.148404549e-16 -2.367986291e-16)
(1 -3.295158043e-16 -4.735235057e-16)
(1 -4.536649918e-16 -2.727142814e-16)
(1 -6.142629613e-16 -3.975204403e-16)
(1 -5.688950638e-16 -2.437233437e-16)
(1 -4.852984157e-16 -4.441860149e-16)
(1 -3.775657484e-16 -2.746971784e-16)
(1 -8.324269422e-16 1.641054251e-16)
(1 -3.425333569e-16 -2.266465935e-16)
(1 -4.417000774e-16 8.632803115e-17)
(1 -1.15571491e-16 -1.822019158e-16)
(1 -3.738707775e-16 -1.338424311e-16)
(1 -4.481097919e-16 -2.072141662e-16)
(1 -1.923953078e-16 5.158626928e-16)
(1 -2.43227617e-16 2.665164682e-16)
(1 -3.10406554e-16 9.876304505e-17)
(1 -8.307987381e-17 -7.230271897e-18)
(1 -1.813604519e-16 -4.304984548e-17)
(1 -3.883119245e-16 -2.240692314e-16)
(1 -2.861022676e-16 -3.842015578e-16)
(1 -2.00447042e-16 3.78796818e-16)
(1 4.157075107e-18 2.746775278e-16)
(1 -1.379059407e-16 1.599897558e-16)
(1 -1.380532952e-16 1.048530186e-16)
(1 -1.802279956e-16 -5.351481289e-17)
(1 -7.289007192e-17 -1.833673045e-16)
(1 -2.842880635e-17 -5.659444296e-17)
(1 1.201638427e-16 -2.761264928e-16)
(1 1.717618309e-16 3.994635011e-16)
(1 2.32826197e-17 1.780616986e-16)
(1 6.823506782e-17 5.935557937e-17)
(1 -8.231438532e-17 2.260238901e-16)
(1 -2.067803082e-16 -5.360841856e-17)
(1 -9.773545178e-17 3.638977708e-17)
(1 7.817656992e-17 -4.128956492e-17)
(1 1.686574001e-16 -1.643244917e-16)
(1 2.189494954e-16 -1.749972662e-16)
(1 2.317931923e-17 2.54475258e-16)
(1 1.987844549e-16 3.614182243e-16)
(1 -1.185908951e-17 -6.98163548e-17)
(1 -1.068676462e-16 3.134366318e-17)
(1 8.902878125e-17 3.08410678e-17)
(1 -8.363965419e-17 3.566919032e-17)
(1 -1.706083882e-16 6.518085765e-18)
(1 -1.02075951e-17 -3.184605759e-16)
(1 7.480677308e-17 -1.099721712e-16)
(1 4.581485232e-17 1.116734679e-17)
(1 -7.195290153e-16 -3.819232669e-16)
(1 -1.466781315e-16 3.798046703e-17)
(1 -3.246192841e-16 -5.673474241e-17)
(1 -3.078449195e-16 -1.81404086e-16)
(1 -2.132455146e-16 -1.92043314e-16)
(1 -3.740631573e-16 2.435806002e-17)
(1 -4.167743284e-16 -7.151036296e-17)
(1 -3.432589863e-16 -2.681755815e-16)
(1 -2.913382866e-16 -2.846982211e-16)
(1 -4.154799753e-16 -2.674317276e-16)
(1 -4.243723077e-16 -3.576179818e-16)
(1 -6.420656003e-16 -4.129233728e-16)
(1 -5.514493908e-16 -1.856457327e-16)
(1 -3.618209288e-16 -4.473304701e-16)
(1 -4.250787858e-16 -3.822892794e-16)
(1 -6.343847164e-16 -2.249140056e-16)
(1 -4.08818677e-16 -2.789835067e-16)
(1 -5.217519932e-16 -7.650292271e-17)
(1 -3.567826393e-16 -2.181302639e-16)
(1 -3.051254105e-16 -2.319012407e-16)
(1 -3.253024503e-16 -1.874603307e-16)
(1 -3.828797247e-16 3.911573872e-16)
(1 -2.898377124e-16 5.137235969e-17)
(1 -3.589933289e-16 4.029128585e-18)
(1 -2.764484061e-16 -1.063473291e-16)
(1 -2.475973127e-16 2.586696355e-17)
(1 -3.777405436e-16 -2.216826421e-16)
(1 -3.482346279e-16 -3.802889316e-16)
(1 -2.132130267e-16 3.905266157e-16)
(1 -1.967279194e-16 3.942023964e-16)
(1 -2.949977407e-16 1.94288884e-16)
(1 -3.006772433e-16 8.758864008e-17)
(1 -1.411140826e-16 -3.045519497e-16)
(1 -1.47906352e-16 -1.779907991e-16)
(1 -2.092728034e-16 -1.294477093e-16)
(1 -1.368456615e-16 -3.925958718e-16)
(1 8.128588821e-17 3.915625809e-16)
(1 -1.637336363e-16 2.62849098e-16)
(1 4.451364438e-17 2.036230499e-16)
(1 -9.523827762e-18 2.10491424e-16)
(1 -1.991369631e-16 -4.669720199e-17)
(1 -7.006649596e-17 -2.816287671e-17)
(1 -9.826041431e-18 -8.904684218e-17)
(1 5.608733766e-17 -1.598114761e-16)
(1 1.11988996e-16 -2.915807488e-16)
(1 7.012596617e-17 2.024854011e-16)
(1 8.709669322e-17 2.782813769e-16)
(1 -8.584953875e-17 -1.015812725e-16)
(1 -1.672801578e-16 1.136446378e-16)
(1 -4.100167786e-18 4.251629565e-17)
(1 -9.997659762e-17 2.058233686e-17)
(1 -1.088787863e-16 -1.607853658e-17)
(1 -2.494778942e-17 -2.627121414e-16)
(1 1.605876695e-16 -1.206509259e-16)
(1 2.497531138e-16 -1.296020975e-16)
(1 -1.276778113e-16 3.594485051e-16)
(1 3.677411298e-17 -4.15511696e-19)
(1 -1.209664503e-16 -9.476569177e-17)
(1 -2.461635577e-17 -4.087492785e-17)
(1 -4.735254945e-17 5.000962383e-17)
(1 3.05759258e-17 1.49469312e-16)
(1 1.094766531e-17 -6.40086927e-17)
(1 -1.255192503e-16 -2.302497924e-16)
(1 -1.131479571e-16 5.874097104e-17)
(1 1.853034575e-16 -1.907327792e-16)
(1 -8.299017227e-19 -8.148261878e-17)
(1 -1.372722198e-15 -1.093348548e-15)
(1 -6.06080687e-16 -1.683763874e-16)
(1 -5.096500536e-16 -2.659892642e-16)
(1 -1.309675912e-16 -1.617787978e-17)
(1 -1.691646588e-16 6.877778102e-18)
(1 -3.341014186e-16 -7.948759938e-17)
(1 -3.044778802e-16 -1.780407061e-17)
(1 -2.446807753e-16 -2.259656719e-16)
(1 -2.978651401e-16 -2.243369312e-16)
(1 -4.816619834e-16 -9.245681093e-17)
(1 -1.862599196e-16 -3.392108367e-16)
(1 -5.307689541e-16 -2.70697329e-16)
(1 -3.888530429e-16 -1.610757457e-16)
(1 -3.411415265e-16 -4.327570908e-16)
(1 -5.155179863e-16 -3.389187519e-16)
(1 -5.518000325e-16 -2.87732133e-16)
(1 -4.4456265e-16 -2.760408915e-16)
(1 -5.302849552e-16 -2.115169871e-16)
(1 -5.027458764e-16 -3.371223776e-16)
(1 -3.661771878e-16 -2.795598619e-16)
(1 -2.313333921e-16 -3.00435624e-16)
(1 -3.864897715e-16 -4.5906434e-17)
(1 -4.213418622e-16 -2.820124728e-16)
(1 -3.618412136e-16 -2.51840038e-17)
(1 -4.06777217e-16 -1.718210711e-16)
(1 -2.886404897e-16 -9.763183164e-17)
(1 -3.325430741e-16 -1.730554415e-16)
(1 -3.542596737e-16 -3.971111593e-16)
(1 -3.242287986e-16 1.577287749e-16)
(1 -3.610330691e-16 2.11936695e-16)
(1 -3.399644443e-16 3.489456275e-18)
(1 -4.235904453e-16 1.1574261e-16)
(1 -1.514842069e-16 -1.811251757e-16)
(1 -1.545794441e-16 -1.882498218e-16)
(1 -3.554102189e-16 -3.124738883e-16)
(1 -3.247266737e-16 -4.918163603e-16)
(1 -1.417738396e-16 4.197112848e-16)
(1 -3.205208079e-16 3.453415392e-16)
(1 -1.456244828e-16 2.079723589e-16)
(1 -1.667777033e-16 1.450342609e-16)
(1 -1.440562616e-16 -5.309434161e-17)
(1 -9.280839862e-17 -9.631070733e-17)
(1 -5.37152639e-17 -1.76758174e-16)
(1 -1.542999899e-16 -2.602119639e-16)
(1 -1.108807164e-16 -5.712835117e-16)
(1 2.201135281e-16 1.566832519e-16)
(1 -1.409303618e-16 3.06689926e-16)
(1 -1.435723251e-16 -4.490736665e-17)
(1 -1.765854404e-16 9.228430451e-17)
(1 -1.173002226e-16 -4.366360976e-17)
(1 -1.355827746e-16 -2.463870384e-17)
(1 -3.030289279e-17 -8.136041686e-17)
(1 -7.983355657e-17 -2.256769962e-16)
(1 -6.97968267e-19 -2.042774927e-16)
(1 2.300333038e-16 -3.105001818e-16)
(1 -1.41589712e-16 3.715254448e-16)
(1 2.308706386e-17 2.977535904e-17)
(1 1.531090329e-17 -9.256025629e-17)
(1 -1.347795879e-16 1.293053838e-16)
(1 -4.149035356e-17 7.544125726e-17)
(1 4.431196579e-17 1.082117793e-16)
(1 -1.41865514e-16 -6.495624053e-17)
(1 -1.156503795e-16 -2.086874495e-16)
(1 8.922482181e-18 -1.307804176e-17)
(1 3.400349892e-16 -1.719477293e-16)
(1 1.636719998e-16 -6.928148386e-17)
(1 -9.233164993e-17 1.622172863e-16)
(1 -1.92013605e-16 1.055359014e-16)
(1 -2.491595075e-16 -1.893122956e-16)
(1 7.214595681e-17 -1.195935195e-16)
(1 -1.786765291e-16 2.607667985e-16)
(1 9.180773723e-17 -4.268132534e-17)
(1 1.275127706e-17 1.960506602e-17)
(1 -7.231583062e-17 -2.172442426e-16)
(1 -7.116612536e-17 -2.330944365e-16)
(1 -9.283901965e-17 -8.146958032e-17)
(1 -3.256471015e-17 4.198121108e-17)
(1 2.242786783e-16 -1.254660382e-16)
(1 -1.631587003e-15 -1.580706412e-15)
(1 -1.150847172e-15 -4.068534822e-16)
(1 -7.125057584e-16 -7.677156094e-16)
(1 -2.761735254e-16 1.334839664e-17)
(1 -2.908929173e-16 -9.894395862e-17)
(1 -4.927446201e-16 -3.928768601e-16)
(1 -6.906206244e-17 -1.149946244e-17)
(1 -2.085113743e-16 -8.534111087e-17)
(1 -2.305274234e-16 -9.463806295e-17)
(1 -3.356771298e-16 8.999096716e-17)
(1 -4.386056581e-17 -2.175139522e-16)
(1 -3.206587835e-16 -1.791307162e-16)
(1 -3.350815384e-16 -1.456606464e-16)
(1 -3.675366942e-16 -3.360457737e-16)
(1 -6.109345925e-16 -2.290860724e-16)
(1 -4.945979567e-16 -3.758092684e-16)
(1 -4.9780988e-16 -2.615480565e-16)
(1 -4.175122982e-16 -3.252460449e-16)
(1 -4.000919891e-16 -3.457541447e-16)
(1 -3.606021077e-16 -2.509973101e-16)
(1 -3.685362411e-16 -2.360387845e-16)
(1 -4.031996313e-16 -1.90923079e-16)
(1 -4.593011187e-16 -3.193782068e-16)
(1 -3.555959995e-16 -9.673278566e-17)
(1 -5.68175281e-16 -3.555197157e-16)
(1 -4.410402643e-16 -3.385514633e-16)
(1 -3.227289829e-16 -1.894992933e-16)
(1 -3.010830513e-16 -3.344290331e-16)
(1 -6.962131754e-16 -1.780229488e-16)
(1 -3.338872096e-16 -8.646635141e-17)
(1 -4.139104023e-16 -5.85615802e-17)
(1 -4.309263449e-16 -2.661363762e-17)
(1 -3.161711691e-16 -1.004856863e-16)
(1 -2.135041313e-16 -2.818102027e-16)
(1 -4.312478908e-16 -4.520859837e-16)
(1 -3.51792925e-16 -4.895106652e-16)
(1 -3.725138074e-16 3.528836293e-16)
(1 -3.907621392e-16 9.471064049e-17)
(1 -3.5781086e-16 2.574834373e-17)
(1 -2.709975695e-16 6.189603951e-17)
(1 -2.04481409e-16 9.279396997e-17)
(1 -1.882571603e-16 -1.582006852e-16)
(1 -1.744998583e-16 -3.874275922e-16)
(1 -3.987113751e-16 -4.114208147e-16)
(1 -2.179692071e-16 -7.378344938e-16)
(1 1.34573504e-16 2.258224777e-16)
(1 -3.119256074e-16 3.23220246e-16)
(1 -2.981331455e-16 4.11204796e-17)
(1 -3.776443541e-16 5.644563153e-17)
(1 -2.96281549e-16 -2.851899761e-16)
(1 -2.245440611e-16 -1.21148778e-16)
(1 -9.778570557e-17 -9.267277208e-17)
(1 -1.205195918e-16 -3.729827699e-16)
(1 -1.956289521e-16 -3.406762906e-16)
(1 1.184434012e-16 -4.08356556e-16)
(1 9.36302451e-18 2.140202839e-16)
(1 6.374042858e-17 9.817900849e-17)
(1 -7.024962562e-17 8.077040778e-17)
(1 -2.553744798e-16 5.359717802e-17)
(1 -1.092048942e-16 -1.04125704e-16)
(1 -7.251526283e-17 -5.617943797e-17)
(1 -2.510389702e-16 -1.481242193e-16)
(1 -1.175864973e-16 -2.220594164e-16)
(1 -6.42733052e-17 -2.332841529e-16)
(1 1.165653374e-16 -2.642833023e-16)
(1 1.489208645e-16 -1.974820171e-16)
(1 -1.101037683e-16 2.416384246e-16)
(1 -1.033615995e-16 1.981521698e-16)
(1 -1.817985247e-17 -8.533304679e-17)
(1 1.050267899e-16 5.089892521e-17)
(1 -1.553940447e-16 2.259428271e-16)
(1 6.053141394e-18 5.801117331e-17)
(1 4.315263102e-17 -8.986620428e-17)
(1 -1.771959195e-16 -1.712277724e-16)
(1 -4.320103762e-18 -1.633451154e-16)
(1 -4.286361178e-17 -9.101854305e-17)
(1 2.148756915e-16 -6.747173775e-17)
(1 2.438387794e-16 -1.480499372e-16)
(1 5.223193883e-18 3.092910041e-16)
(1 -1.091323799e-16 5.082209086e-17)
(1 -7.461358418e-17 2.074105294e-17)
(1 1.585778183e-16 2.915350494e-16)
(1 2.008006416e-16 1.685984078e-16)
(1 4.344867885e-17 -2.735915822e-17)
(1 -1.737943907e-16 -7.862146307e-17)
(1 -1.189389021e-17 -3.289560016e-16)
(1 -1.073519687e-16 -3.087395075e-17)
(1 -2.073554949e-16 -4.497351033e-17)
(1 3.86816294e-17 -2.377337257e-16)
(1 5.479696428e-17 1.940019856e-16)
(1 3.885449124e-16 1.700194893e-17)
(1 -1.330010387e-15 -1.638200789e-15)
(1 -1.363611429e-15 -7.468412094e-16)
(1 -7.350284068e-16 -1.500850002e-15)
(1 -6.383571394e-16 -2.448851931e-16)
(1 -5.682975079e-16 -3.220019718e-16)
(1 -7.098484215e-16 -6.717367954e-16)
(1 -1.062305035e-16 -1.230234819e-16)
(1 -3.11251886e-16 -1.124054929e-16)
(1 -4.700492738e-16 -2.547206352e-16)
(1 -3.171925093e-16 -1.932591268e-16)
(1 -2.099912658e-17 -1.661931546e-16)
(1 -2.360156908e-16 -1.258301297e-16)
(1 -2.676754566e-16 -1.661290921e-16)
(1 -2.673972948e-16 -1.669554428e-16)
(1 -6.184425104e-16 -2.976262145e-16)
(1 -4.933345461e-16 -3.963086132e-16)
(1 -4.298051058e-16 -3.23566393e-16)
(1 -4.011405976e-16 -2.806607292e-16)
(1 -2.998347029e-16 -2.238381271e-16)
(1 -4.228556622e-16 -2.806459573e-16)
(1 -5.159598768e-16 -2.132317253e-16)
(1 -3.944933043e-16 -2.097685448e-16)
(1 -4.333906927e-16 -3.11304972e-16)
(1 -2.379172476e-16 -1.18430474e-16)
(1 -4.88110962e-16 -3.282031091e-16)
(1 -2.837026051e-16 -2.275262244e-16)
(1 -2.499873946e-16 -1.153550386e-16)
(1 -3.874696553e-16 -1.753564163e-16)
(1 -7.137920662e-16 -1.827039399e-16)
(1 -3.148372957e-16 -2.424746205e-16)
(1 -5.20805191e-16 -1.514126844e-16)
(1 -3.864705057e-16 -2.522755358e-16)
(1 -4.630764436e-16 -1.783407119e-16)
(1 -3.908912437e-16 -3.324947425e-16)
(1 -3.953285092e-16 -4.955857846e-16)
(1 -3.881890565e-16 -3.218341933e-16)
(1 -7.660484201e-16 2.421335604e-16)
(1 -4.163456808e-16 -3.643641724e-16)
(1 -3.854668736e-16 3.660735878e-18)
(1 -4.114455909e-16 -7.435064047e-17)
(1 -2.770788319e-16 7.349992536e-18)
(1 -3.206550523e-16 -1.509090287e-16)
(1 -2.393827056e-16 -4.294184373e-16)
(1 -3.625490967e-16 -4.663169319e-16)
(1 -2.926681128e-16 -5.368262944e-16)
(1 -9.134052758e-17 1.668288843e-16)
(1 -3.277573564e-16 2.462456013e-16)
(1 -3.465304534e-16 6.048131907e-17)
(1 -3.291323682e-16 1.717438925e-17)
(1 -4.718457087e-16 -1.342638468e-16)
(1 -3.96054259e-16 -2.320542042e-16)
(1 -1.331571772e-16 -2.632309044e-16)
(1 -1.403806825e-16 -4.446081654e-16)
(1 -3.224575424e-16 -4.793556093e-16)
(1 -5.481360915e-17 -4.002142684e-16)
(1 1.600976112e-16 2.064928949e-16)
(1 -4.887249756e-17 1.909700565e-16)
(1 -3.444742537e-16 1.253489074e-16)
(1 -4.124921416e-16 -1.091732231e-16)
(1 -3.855074397e-16 -2.511569099e-16)
(1 -3.320770083e-16 -2.257942673e-16)
(1 -2.708688115e-16 -2.708916575e-16)
(1 -1.731961138e-16 -3.213559077e-16)
(1 -1.053805915e-16 -4.368648788e-16)
(1 -4.363603221e-17 -2.811811975e-16)
(1 5.444542277e-17 -3.774511447e-16)
(1 -1.897260411e-16 2.626735891e-16)
(1 1.090404255e-16 9.996069796e-17)
(1 2.086948374e-17 6.369920954e-17)
(1 -4.200518726e-17 1.216635773e-16)
(1 -1.253285819e-16 2.97638275e-17)
(1 -9.34548101e-17 -4.087847478e-18)
(1 -8.224330358e-17 -1.746231638e-16)
(1 -2.283980946e-16 -1.681135179e-16)
(1 2.2715139e-17 -1.996591744e-16)
(1 -8.748271232e-17 -1.850974348e-16)
(1 1.356823298e-16 -1.756703873e-16)
(1 2.338078797e-16 -1.663382709e-16)
(1 -2.394941186e-17 2.320194961e-16)
(1 -2.245161286e-16 1.394658817e-16)
(1 -3.597553268e-17 6.098941541e-17)
(1 1.720644828e-16 2.426300923e-16)
(1 1.534770536e-16 1.224175107e-16)
(1 -8.004443593e-17 1.709788503e-17)
(1 -1.137264054e-16 -2.039669402e-16)
(1 -8.018266724e-17 -2.248422425e-16)
(1 -1.208407355e-16 -4.423206826e-17)
(1 -1.356929671e-16 -8.052060039e-17)
(1 9.795118817e-17 -1.95803606e-16)
(1 1.884934481e-16 7.250708292e-17)
(1 4.042196889e-16 -4.112838816e-17)
(1 3.172811758e-16 8.899078635e-17)
(1 -8.158142004e-17 3.615130805e-16)
(1 1.497892646e-16 -3.371868199e-17)
(1 -4.203219542e-17 2.758313974e-16)
(1 1.267625182e-16 1.698813326e-17)
(1 -1.312987672e-16 -7.764786613e-17)
(1 -1.975313847e-16 -2.239995793e-16)
(1 -1.58200515e-16 -4.509029412e-17)
(1 1.669859638e-16 -2.250453818e-16)
(1 -4.633632223e-17 5.950252752e-17)
(1 8.424808818e-17 7.731731344e-18)
(1 -1.631827772e-16 1.67310449e-16)
(1 2.532264869e-16 5.102658745e-17)
(1 2.41602202e-16 2.058773136e-16)
(1 -8.748122581e-16 -1.281123383e-15)
(1 -1.144619047e-15 -9.738822087e-16)
(1 -6.300056131e-16 -1.649808949e-15)
(1 -1.002679054e-15 -7.712008046e-16)
(1 -7.449528674e-16 -7.392942898e-16)
(1 -6.734506185e-16 -8.884996482e-16)
(1 -4.171334746e-16 -1.697309642e-16)
(1 -4.969320529e-16 -3.269512826e-16)
(1 -6.797056504e-16 -4.83915202e-16)
(1 -4.553073445e-16 -5.967607734e-16)
(1 -7.358321289e-17 -1.607137022e-16)
(1 -2.894602967e-16 -1.413613503e-16)
(1 -3.193085828e-16 -3.117043484e-16)
(1 -2.25074776e-16 -2.876339035e-16)
(1 -6.292663027e-16 -3.532449271e-16)
(1 -3.069656301e-16 -2.709416315e-16)
(1 -2.425685165e-16 -3.370742115e-16)
(1 -3.435794245e-16 -2.307779468e-16)
(1 -3.154416316e-16 -1.108889479e-16)
(1 -4.459987891e-16 -2.987852063e-16)
(1 -3.398059016e-16 -3.340444105e-16)
(1 -3.443488352e-16 -1.450455729e-16)
(1 -4.772466532e-16 -3.697117147e-16)
(1 -2.167796418e-16 -2.135992166e-16)
(1 -4.021343165e-16 -1.634595282e-16)
(1 -1.702984171e-16 -1.010399967e-16)
(1 -2.2500008e-16 -1.328575643e-16)
(1 -5.000085161e-16 -2.973488392e-17)
(1 -5.021892001e-16 -2.752696708e-16)
(1 -3.31827982e-16 -2.589370537e-16)
(1 -4.979831565e-16 -1.097494919e-16)
(1 -2.727309525e-16 -3.752858578e-16)
(1 -4.497437703e-16 -1.158707826e-16)
(1 -2.648245572e-16 -1.454892425e-16)
(1 -2.875690081e-16 -2.872897216e-16)
(1 -4.657374206e-16 -2.421181186e-17)
(1 -8.145229261e-16 1.447015475e-16)
(1 -4.066698647e-16 -2.93390386e-16)
(1 -3.704937612e-16 -4.150332843e-17)
(1 -3.951322894e-16 -2.86864662e-16)
(1 -2.692876306e-16 -7.160383082e-17)
(1 -2.991069664e-16 -1.780006366e-16)
(1 -4.320749524e-16 -3.421538003e-16)
(1 -3.738342033e-16 -3.998863772e-16)
(1 -3.453899093e-16 -2.661042349e-16)
(1 -2.650464521e-16 1.756797462e-16)
(1 -4.045576879e-16 1.498153451e-16)
(1 -4.384598667e-16 -6.859675422e-17)
(1 -3.643819606e-16 -9.946363542e-17)
(1 -5.115588056e-16 -7.400390084e-17)
(1 -4.261690648e-16 -2.480014819e-16)
(1 -3.240567806e-16 -3.673932621e-16)
(1 -1.637605944e-16 -3.747969339e-16)
(1 -3.025626897e-16 -3.409681781e-16)
(1 -1.4402223e-16 -3.5014658e-16)
(1 -1.775835967e-16 2.184606696e-16)
(1 -2.181765075e-16 1.011478283e-16)
(1 -3.171635344e-16 1.137385799e-16)
(1 -3.255311512e-16 -9.841342491e-17)
(1 -5.145318598e-16 -5.929460713e-17)
(1 -4.369219845e-16 -2.629691352e-16)
(1 -2.849271543e-16 -3.408867847e-16)
(1 -1.450472986e-16 -4.008526393e-16)
(1 -1.772252047e-16 -5.486297499e-16)
(1 -2.1814128e-16 -3.69138446e-16)
(1 -1.80679331e-16 -3.97848262e-16)
(1 -2.120205246e-17 1.617094459e-16)
(1 4.782632301e-17 1.152386599e-16)
(1 -6.120371589e-17 1.348059366e-16)
(1 -2.007112753e-16 1.052708936e-16)
(1 -2.123876316e-16 -1.110137104e-16)
(1 -2.15083687e-16 -7.047894332e-17)
(1 -2.653726628e-16 -1.371365008e-16)
(1 -2.703484893e-16 -1.679934245e-16)
(1 1.052477247e-16 -3.264541837e-16)
(1 -1.119553509e-16 -2.374566484e-16)
(1 -3.532193721e-17 -3.26427716e-16)
(1 1.699374367e-16 -2.500031551e-16)
(1 -1.041590398e-16 3.314508275e-16)
(1 -1.100873413e-16 1.084259396e-16)
(1 -3.666783295e-19 5.347973731e-17)
(1 8.652699287e-18 9.037430989e-17)
(1 -6.119255803e-17 -6.609387869e-17)
(1 -1.825632546e-16 3.596128386e-18)
(1 -5.035235136e-17 -1.846619117e-16)
(1 -1.022931708e-16 -1.279137467e-16)
(1 -1.376021706e-16 -9.825006149e-17)
(1 4.184216325e-18 -1.501937913e-16)
(1 4.066501159e-17 -1.595378181e-16)
(1 1.626836322e-16 -2.133118675e-17)
(1 2.871595069e-16 -3.633305125e-17)
(1 1.42735708e-16 1.111465609e-16)
(1 -1.352065989e-16 2.479976667e-16)
(1 -5.019735706e-17 -2.035360473e-17)
(1 -2.644366699e-17 1.434957086e-16)
(1 4.42297735e-17 -5.13811783e-17)
(1 -1.702571673e-16 -7.136184973e-17)
(1 -2.918623278e-16 -1.363448269e-16)
(1 -2.1528545e-17 -1.873017256e-16)
(1 3.059379607e-17 -8.800406011e-17)
(1 -8.64589137e-17 -1.920029847e-17)
(1 4.16748625e-17 -3.075040946e-17)
(1 -1.528498472e-17 9.514669824e-17)
(1 4.6271895e-16 -2.887845165e-17)
(1 2.663188208e-16 2.072781053e-16)
(1 -1.052042053e-17 -1.614804206e-16)
(1 -1.363688338e-16 2.867651008e-16)
(1 2.213068112e-16 -4.257613512e-17)
(1 -1.691775978e-16 7.331646863e-17)
(1 -2.849693713e-16 1.927115357e-17)
(1 1.753583634e-17 -2.094388835e-16)
(1 2.036413751e-17 -2.329646337e-16)
(1 -1.064610215e-16 -1.734366162e-16)
(1 -5.8746206e-17 -1.049548652e-17)
(1 8.263567868e-18 1.846505762e-17)
(1 -4.153724397e-17 2.006888174e-16)
(1 1.97812815e-16 1.601231707e-16)
(1 1.443389004e-17 2.195724816e-17)
(1 5.546045974e-17 -1.567155712e-16)
(1 -3.39746427e-17 2.259852014e-16)
(1 -4.291728676e-16 -7.828071978e-16)
(1 -7.353688651e-16 -8.893270323e-16)
(1 -5.001826917e-16 -1.408992978e-15)
(1 -1.008856658e-15 -9.685583048e-16)
(1 -6.867364779e-16 -1.08062879e-15)
(1 -5.213318566e-16 -1.147128537e-15)
(1 -7.619725915e-16 -3.225712985e-16)
(1 -6.446520995e-16 -7.428034758e-16)
(1 -5.974951985e-16 -6.515051365e-16)
(1 -4.464391534e-16 -8.362813078e-16)
(1 -1.771749643e-16 -2.541348879e-16)
(1 -4.463574799e-16 -1.121181547e-16)
(1 -4.325612901e-16 -4.496780386e-16)
(1 -3.188375785e-16 -5.087681945e-16)
(1 -6.31216437e-16 -4.85512302e-16)
(1 -8.807344693e-17 -1.567044097e-16)
(1 -1.16931778e-16 -2.205735368e-16)
(1 -2.370415864e-16 -1.370023109e-16)
(1 -2.039215476e-16 -2.268998423e-16)
(1 -4.822379538e-16 -3.245542572e-16)
(1 -2.864672105e-16 -4.891698525e-16)
(1 -1.467672582e-16 -1.895008543e-16)
(1 -3.769904986e-16 -2.873772228e-16)
(1 -1.901511847e-16 -3.106956479e-16)
(1 -3.591208242e-16 -5.805911386e-17)
(1 -1.566332574e-16 -1.519438929e-16)
(1 -1.149758591e-16 -2.349254176e-16)
(1 -4.731888791e-16 -9.723516987e-17)
(1 -3.208273983e-16 -2.992118875e-16)
(1 -2.788706579e-16 -2.717308556e-16)
(1 -4.656861489e-16 -1.327446528e-16)
(1 -2.806955137e-16 -2.607703057e-16)
(1 -4.248617821e-16 -1.408316975e-16)
(1 -1.81942669e-16 -1.773871876e-16)
(1 -3.651784909e-16 -6.539627017e-17)
(1 -5.497478232e-16 1.898205376e-17)
(1 -7.14531547e-16 -7.175812336e-17)
(1 -3.525158877e-16 -2.561535653e-16)
(1 -3.639494368e-16 -8.331617651e-17)
(1 -3.895865342e-16 -2.807856382e-16)
(1 -1.881152214e-16 -1.038124482e-16)
(1 -3.555039912e-16 -2.116203055e-16)
(1 -4.114538184e-16 -1.642717235e-16)
(1 -2.209369751e-16 -1.994541274e-16)
(1 -5.154990413e-16 -5.745189708e-18)
(1 -3.851468895e-16 3.153362348e-16)
(1 -3.115277584e-16 -8.25304177e-17)
(1 -5.672506798e-16 -2.044689956e-16)
(1 -3.78508421e-16 -2.473815986e-16)
(1 -5.140111014e-16 -1.125439962e-16)
(1 -3.243242209e-16 -3.270817258e-16)
(1 -4.915119598e-16 -2.429198299e-16)
(1 -1.549968288e-16 -1.671059087e-16)
(1 -2.257611256e-16 -1.673641403e-16)
(1 -2.0839831e-16 -2.54684537e-16)
(1 -3.330396321e-16 2.216634169e-16)
(1 -2.873423181e-16 9.770857282e-17)
(1 -3.290755267e-16 1.338761715e-16)
(1 -3.140575209e-16 -1.055979381e-16)
(1 -3.972462604e-16 -8.751495539e-18)
(1 -4.211489641e-16 -2.376506937e-16)
(1 -4.05449328e-16 -3.072751159e-16)
(1 -1.703739356e-16 -3.974389331e-16)
(1 -2.003128699e-16 -4.332694587e-16)
(1 -2.644753189e-16 -2.861575541e-16)
(1 -2.374320025e-16 -3.320250003e-16)
(1 -4.878007034e-17 1.774589723e-16)
(1 -1.744779668e-16 1.191067483e-16)
(1 -2.437323847e-16 2.406537271e-16)
(1 -1.531558932e-16 4.535491154e-17)
(1 -3.195732679e-16 -1.241744012e-16)
(1 -2.963589696e-16 -7.888737282e-17)
(1 -3.313085268e-16 -1.348657419e-16)
(1 -2.161680818e-16 -3.059922773e-16)
(1 -1.990875787e-17 -3.70957259e-16)
(1 -5.244467869e-17 -3.001114421e-16)
(1 -1.974637315e-16 -2.522116213e-16)
(1 1.266422377e-16 -3.675778812e-16)
(1 -1.069107377e-16 2.504040861e-16)
(1 -2.597496329e-17 6.418128999e-17)
(1 2.784181486e-17 5.653176955e-17)
(1 -9.115260871e-17 3.080521355e-17)
(1 -1.696013561e-16 -9.631412893e-17)
(1 -2.533688045e-16 -6.010974032e-18)
(1 -1.954085446e-16 -1.121866652e-16)
(1 -1.767086689e-16 -1.774247382e-16)
(1 -1.324275711e-16 -2.707458968e-16)
(1 -2.826328656e-18 -2.37141517e-16)
(1 -5.368309335e-17 -2.539169063e-16)
(1 6.441838243e-17 -2.096221115e-16)
(1 1.21348372e-16 -8.068731649e-17)
(1 -1.768438585e-16 2.927430997e-16)
(1 -8.706856162e-17 3.225776128e-16)
(1 3.852129914e-17 3.198919119e-17)
(1 4.762991305e-17 7.299668469e-17)
(1 -2.470480419e-17 -1.021282963e-16)
(1 -1.843466172e-16 -5.670302899e-17)
(1 -1.884643657e-16 -1.579863083e-16)
(1 -6.829188806e-17 -1.325408775e-16)
(1 -5.153871584e-17 -4.538446403e-17)